* Generated by cif2pdb.py
* Supercell with consistent per-molecule atom order
*
      1944  EXT
         1         1  MOL       C1              7.7840375511        9.4378505888        5.6780157546  SYS              1   0.00000
         2         1  MOL       C2              6.7996743803        9.4427595054        6.6971347732  SYS              1   0.00000
         3         1  MOL       C3              9.0281344346        8.7087015172        5.9099531864  SYS              1   0.00000
         4         1  MOL       C4              7.6134524656       10.1179558788        4.4649127023  SYS              1   0.00000
         5         1  MOL       C5              6.9953089082        8.7835087142        7.8975866929  SYS              1   0.00000
         6         1  MOL       H6              5.9853739539        9.9104204598        6.5523495885  SYS              1   0.00000
         7         1  MOL       C7              9.1985666111        8.0319855531        7.1343016901  SYS              1   0.00000
         8         1  MOL       C8             10.0038955137        8.7035578186        4.9062966634  SYS              1   0.00000
         9         1  MOL       C9              8.5892135447       10.1128121802        3.4612561792  SYS              1   0.00000
        10         1  MOL       H10             6.7998005244       10.5904293852        4.3341843316  SYS              1   0.00000
        11         1  MOL       C11             6.0110784358        8.8003561097        8.9349795697  SYS              1   0.00000
        12         1  MOL       C12             8.2259885221        8.0591917864        8.1239013991  SYS              1   0.00000
        13         1  MOL       H13             9.9997609960        7.5444629458        7.2861152818  SYS              1   0.00000
        14         1  MOL       H14            10.8175474549        8.2310843122        5.0370250340  SYS              1   0.00000
        15         1  MOL       C15             9.8333104282        9.3836631085        3.6931936110  SYS              1   0.00000
        16         1  MOL       C16             8.4187813682       10.7895281442        2.2369076756  SYS              1   0.00000
        17         1  MOL       C17             6.2222783749        8.1568195818       10.1073178613  SYS              1   0.00000
        18         1  MOL       H18             5.1963776245        9.2692153041        8.7986284734  SYS              1   0.00000
        19         1  MOL       C19             8.3978027717        7.3993393464        9.3777692122  SYS              1   0.00000
        20         1  MOL       C20            10.8176735990        9.3787541920        2.6740745925  SYS              1   0.00000
        21         1  MOL       C21             9.3913594572       10.7623219110        1.2473079666  SYS              1   0.00000
        22         1  MOL       H22             7.6175869833       11.2770507515        2.0850940839  SYS              1   0.00000
        23         1  MOL       C23             7.4401359234        7.4423723360       10.3364439303  SYS              1   0.00000
        24         1  MOL       H24             5.5557745737        8.1800598083       10.7834506170  SYS              1   0.00000
        25         1  MOL       H25             9.2004203955        6.9181650104        9.5436396180  SYS              1   0.00000
        26         1  MOL       H26            11.6319740254        8.9110932376        2.8188597772  SYS              1   0.00000
        27         1  MOL       C27            10.6220390711       10.0380049832        1.4736226727  SYS              1   0.00000
        28         1  MOL       C28             9.2195452076       11.4221743510       -0.0065598466  SYS              1   0.00000
        29         1  MOL       H29             7.5785493937        6.9972864457       11.1643902778  SYS              1   0.00000
        30         1  MOL       C30            11.6062695434       10.0211575877        0.4362297960  SYS              1   0.00000
        31         1  MOL       C31            10.1772120558       11.3791413614       -0.9652345647  SYS              1   0.00000
        32         1  MOL       H32             8.4169275838       11.9033486870       -0.1724302523  SYS              1   0.00000
        33         1  MOL       C33            11.3950696044       10.6646941156       -0.7361084957  SYS              1   0.00000
        34         1  MOL       H34            12.4209703548        9.5522983933        0.5725808922  SYS              1   0.00000
        35         1  MOL       H35            10.0387985856       11.8242272517       -1.7931809121  SYS              1   0.00000
        36         1  MOL       H36            12.0615734056       10.6414538891       -1.4122412514  SYS              1   0.00000
        37         2  MOL       C1              9.5984532299        4.9818997483       17.7500076595  SYS              2   0.00000
        38         2  MOL       C2             10.5828164007        4.9769908317       16.7308886409  SYS              2   0.00000
        39         2  MOL       C3              8.3543563463        5.7110488200       17.5180702277  SYS              2   0.00000
        40         2  MOL       C4              9.7690383153        4.3017944584       18.9631107118  SYS              2   0.00000
        41         2  MOL       C5             10.3871818728        5.6362416230       15.5304367212  SYS              2   0.00000
        42         2  MOL       H6             11.3971168270        4.5093298774       16.8756738256  SYS              2   0.00000
        43         2  MOL       C7              8.1839241699        6.3877647840       16.2937217240  SYS              2   0.00000
        44         2  MOL       C8              7.3785952672        5.7161925186       18.5217267507  SYS              2   0.00000
        45         2  MOL       C9              8.7932772363        4.3069381570       19.9667672349  SYS              2   0.00000
        46         2  MOL       H10            10.5826902565        3.8293209520       19.0938390825  SYS              2   0.00000
        47         2  MOL       C11            11.3714123451        5.6193942275       14.4930438444  SYS              2   0.00000
        48         2  MOL       C12             9.1565022589        6.3605585508       15.3041220150  SYS              2   0.00000
        49         2  MOL       H13             7.3827297850        6.8752873913       16.1419081323  SYS              2   0.00000
        50         2  MOL       H14             6.5649433261        6.1886660250       18.3909983801  SYS              2   0.00000
        51         2  MOL       C15             7.5491803527        5.0360872286       19.7348298031  SYS              2   0.00000
        52         2  MOL       C16             8.9637094127        3.6302221929       21.1911157385  SYS              2   0.00000
        53         2  MOL       C17            11.1602124060        6.2629307554       13.3207055528  SYS              2   0.00000
        54         2  MOL       H18            12.1861131564        5.1505350330       14.6293949407  SYS              2   0.00000
        55         2  MOL       C19             8.9846880092        7.0204109908       14.0502542019  SYS              2   0.00000
        56         2  MOL       C20             6.5648171819        5.0409961452       20.7539488216  SYS              2   0.00000
        57         2  MOL       C21             7.9911313237        3.6574284261       22.1807154475  SYS              2   0.00000
        58         2  MOL       H22             9.7649037976        3.1426995856       21.3429293302  SYS              2   0.00000
        59         2  MOL       C23             9.9423548575        6.9773780012       13.0915794838  SYS              2   0.00000
        60         2  MOL       H24            11.8267162073        6.2396905289       12.6445727971  SYS              2   0.00000
        61         2  MOL       H25             8.1820703854        7.5015853267       13.8843837961  SYS              2   0.00000
        62         2  MOL       H26             5.7505167556        5.5086570996       20.6091636369  SYS              2   0.00000
        63         2  MOL       C27             6.7604517098        4.3817453540       21.9544007413  SYS              2   0.00000
        64         2  MOL       C28             8.1629455734        2.9975759862       23.4345832606  SYS              2   0.00000
        65         2  MOL       H29             9.8039413872        7.4224638915       12.2636331363  SYS              2   0.00000
        66         2  MOL       C30             5.7762212375        4.3985927495       22.9917936181  SYS              2   0.00000
        67         2  MOL       C31             7.2052787251        3.0406089757       24.3932579788  SYS              2   0.00000
        68         2  MOL       H32             8.9655631971        2.5164016502       23.6004536664  SYS              2   0.00000
        69         2  MOL       C33             5.9874211765        3.7550562216       24.1641319098  SYS              2   0.00000
        70         2  MOL       H34             4.9615204261        4.8674519439       22.8554425219  SYS              2   0.00000
        71         2  MOL       H35             7.3436921953        2.5955230855       25.2212043262  SYS              2   0.00000
        72         2  MOL       H36             5.3209173753        3.7782964481       24.8402646655  SYS              2   0.00000
        73         3  MOL       C1              8.0504417819        8.3129200817       33.7916438516  SYS              3   0.00000
        74         3  MOL       C2              7.0660786111        8.3178289982       34.8107628701  SYS              3   0.00000
        75         3  MOL       C3              9.2945386655        7.5837710100       34.0235812834  SYS              3   0.00000
        76         3  MOL       C4              7.8798566965        8.9930253716       32.5785407992  SYS              3   0.00000
        77         3  MOL       C5              7.2617131390        7.6585782070       36.0112147898  SYS              3   0.00000
        78         3  MOL       H6              6.2517781848        8.7854899526       34.6659776854  SYS              3   0.00000
        79         3  MOL       C7              9.4649708419        6.9070550460       35.2479297870  SYS              3   0.00000
        80         3  MOL       C8             10.2702997445        7.5786273114       33.0199247603  SYS              3   0.00000
        81         3  MOL       C9              8.8556177755        8.9878816730       31.5748842761  SYS              3   0.00000
        82         3  MOL       H10             7.0662047553        9.4654988780       32.4478124285  SYS              3   0.00000
        83         3  MOL       C11             6.2774826667        7.6754256025       37.0486076666  SYS              3   0.00000
        84         3  MOL       C12             8.4923927529        6.9342612792       36.2375294960  SYS              3   0.00000
        85         3  MOL       H13            10.2661652268        6.4195324387       35.3997433787  SYS              3   0.00000
        86         3  MOL       H14            11.0839516857        7.1061538050       33.1506531309  SYS              3   0.00000
        87         3  MOL       C15            10.0997146591        8.2587326014       31.8068217079  SYS              3   0.00000
        88         3  MOL       C16             8.6851855991        9.6645976371       30.3505357725  SYS              3   0.00000
        89         3  MOL       C17             6.4886826058        7.0318890746       38.2209459582  SYS              3   0.00000
        90         3  MOL       H18             5.4627818554        8.1442847969       36.9122565703  SYS              3   0.00000
        91         3  MOL       C19             8.6642070026        6.2744088392       37.4913973091  SYS              3   0.00000
        92         3  MOL       C20            11.0840778299        8.2538236848       30.7877026894  SYS              3   0.00000
        93         3  MOL       C21             9.6577636881        9.6373914038       29.3609360635  SYS              3   0.00000
        94         3  MOL       H22             7.8839912142       10.1521202444       30.1987221808  SYS              3   0.00000
        95         3  MOL       C23             7.7065401543        6.3174418288       38.4500720272  SYS              3   0.00000
        96         3  MOL       H24             5.8221788045        7.0551293011       38.8970787140  SYS              3   0.00000
        97         3  MOL       H25             9.4668246264        5.7932345032       37.6572677149  SYS              3   0.00000
        98         3  MOL       H26            11.8983782562        7.7861627304       30.9324878741  SYS              3   0.00000
        99         3  MOL       C27            10.8884433020        8.9130744760       29.5872507697  SYS              3   0.00000
       100         3  MOL       C28             9.4859494384       10.2972438438       28.1070682504  SYS              3   0.00000
       101         3  MOL       H29             7.8449536245        5.8723559385       39.2780183747  SYS              3   0.00000
       102         3  MOL       C30            11.8726737743        8.8962270805       28.5498578929  SYS              3   0.00000
       103         3  MOL       C31            10.4436162867       10.2542108542       27.1483935323  SYS              3   0.00000
       104         3  MOL       H32             8.6833318147       10.7784181798       27.9411978446  SYS              3   0.00000
       105         3  MOL       C33            11.6614738352        9.5397636084       27.3775196012  SYS              3   0.00000
       106         3  MOL       H34            12.6873745857        8.4273678861       28.6862089892  SYS              3   0.00000
       107         3  MOL       H35            10.3052028165       10.6992967445       26.3204471848  SYS              3   0.00000
       108         3  MOL       H36            12.3279776365        9.5165233819       26.7013868455  SYS              3   0.00000
       109         4  MOL       C1              9.0214176079       20.3932796551       19.7348298031  SYS              4   0.00000
       110         4  MOL       C2              8.0370544371       20.3981885717       20.7539488216  SYS              4   0.00000
       111         4  MOL       C3             10.2655144915       19.6641305834       19.9667672349  SYS              4   0.00000
       112         4  MOL       C4              8.8508325225       21.0733849450       18.5217267507  SYS              4   0.00000
       113         4  MOL       C5              8.2326889650       19.7389377805       21.9544007413  SYS              4   0.00000
       114         4  MOL       H6              7.2227540108       20.8658495260       20.6091636369  SYS              4   0.00000
       115         4  MOL       C7             10.4359466679       18.9874146194       21.1911157385  SYS              4   0.00000
       116         4  MOL       C8             11.2412755705       19.6589868849       18.9631107118  SYS              4   0.00000
       117         4  MOL       C9              9.8265936015       21.0682412465       17.5180702277  SYS              4   0.00000
       118         4  MOL       H10             8.0371805813       21.5458584515       18.3909983801  SYS              4   0.00000
       119         4  MOL       C11             7.2484584927       19.7557851760       22.9917936181  SYS              4   0.00000
       120         4  MOL       C12             9.4633685789       19.0146208526       22.1807154475  SYS              4   0.00000
       121         4  MOL       H13            11.2371410528       18.4998920121       21.3429293302  SYS              4   0.00000
       122         4  MOL       H14            12.0549275117       19.1865133785       19.0938390825  SYS              4   0.00000
       123         4  MOL       C15            11.0706904851       20.3390921748       17.7500076595  SYS              4   0.00000
       124         4  MOL       C16             9.6561614251       21.7449572105       16.2937217240  SYS              4   0.00000
       125         4  MOL       C17             7.4596584317       19.1122486481       24.1641319098  SYS              4   0.00000
       126         4  MOL       H18             6.4337576813       20.2246443704       22.8554425219  SYS              4   0.00000
       127         4  MOL       C19             9.6351828286       18.3547684127       23.4345832606  SYS              4   0.00000
       128         4  MOL       C20            12.0550536559       20.3341832582       16.7308886409  SYS              4   0.00000
       129         4  MOL       C21            10.6287395141       21.7177509773       15.3041220150  SYS              4   0.00000
       130         4  MOL       H22             8.8549670402       22.2324798178       16.1419081323  SYS              4   0.00000
       131         4  MOL       C23             8.6775159803       18.3978014022       24.3932579788  SYS              4   0.00000
       132         4  MOL       H24             6.7931546305       19.1354888746       24.8402646655  SYS              4   0.00000
       133         4  MOL       H25            10.4378004523       17.8735940767       23.6004536664  SYS              4   0.00000
       134         4  MOL       H26            12.8693540822       19.8665223039       16.8756738256  SYS              4   0.00000
       135         4  MOL       C27            11.8594191280       20.9934340495       15.5304367212  SYS              4   0.00000
       136         4  MOL       C28            10.4569252644       22.3776034173       14.0502542019  SYS              4   0.00000
       137         4  MOL       H29             8.8159294505       17.9527155120       25.2212043262  SYS              4   0.00000
       138         4  MOL       C30            12.8436496003       20.9765866540       14.4930438444  SYS              4   0.00000
       139         4  MOL       C31            11.4145921127       22.3345704277       13.0915794838  SYS              4   0.00000
       140         4  MOL       H32             9.6543076406       22.8587777532       13.8843837961  SYS              4   0.00000
       141         4  MOL       C33            12.6324496612       21.6201231819       13.3207055528  SYS              4   0.00000
       142         4  MOL       H34            13.6583504116       20.5077274595       14.6293949407  SYS              4   0.00000
       143         4  MOL       H35            11.2761786425       22.7796563180       12.2636331363  SYS              4   0.00000
       144         4  MOL       H36            13.2989534625       21.5968829554       12.6445727971  SYS              4   0.00000
       145         5  MOL       C1             11.5719519143       23.6159250278       31.8068217079  SYS              5   0.00000
       146         5  MOL       C2             12.5563150851       23.6110161113       30.7877026894  SYS              5   0.00000
       147         5  MOL       C3             10.3278550307       24.3450740995       31.5748842761  SYS              5   0.00000
       148         5  MOL       C4             11.7425369997       22.9358197379       33.0199247603  SYS              5   0.00000
       149         5  MOL       C5             12.3606805572       24.2702669025       29.5872507697  SYS              5   0.00000
       150         5  MOL       H6             13.3706155114       23.1433551569       30.9324878741  SYS              5   0.00000
       151         5  MOL       C7             10.1574228543       25.0217900635       30.3505357725  SYS              5   0.00000
       152         5  MOL       C8              9.3520939517       24.3502177981       32.5785407992  SYS              5   0.00000
       153         5  MOL       C9             10.7667759207       22.9409634365       34.0235812834  SYS              5   0.00000
       154         5  MOL       H10            12.5561889409       22.4633462315       33.1506531309  SYS              5   0.00000
       155         5  MOL       C11            13.3449110295       24.2534195070       28.5498578929  SYS              5   0.00000
       156         5  MOL       C12            11.1300009433       24.9945838303       29.3609360635  SYS              5   0.00000
       157         5  MOL       H13             9.3562284694       25.5093126709       30.1987221808  SYS              5   0.00000
       158         5  MOL       H14             8.5384420105       24.8226913045       32.4478124285  SYS              5   0.00000
       159         5  MOL       C15             9.5226790371       23.6701125082       33.7916438516  SYS              5   0.00000
       160         5  MOL       C16            10.9372080971       22.2642474725       35.2479297870  SYS              5   0.00000
       161         5  MOL       C17            13.1337110905       24.8969560349       27.3775196012  SYS              5   0.00000
       162         5  MOL       H18            14.1596118409       23.7845603126       28.6862089892  SYS              5   0.00000
       163         5  MOL       C19            10.9581866936       25.6544362703       28.1070682504  SYS              5   0.00000
       164         5  MOL       C20             8.5383158663       23.6750214247       34.8107628701  SYS              5   0.00000
       165         5  MOL       C21             9.9646300081       22.2914537057       36.2375294960  SYS              5   0.00000
       166         5  MOL       H22            11.7384024820       21.7767248651       35.3997433787  SYS              5   0.00000
       167         5  MOL       C23            11.9158535419       25.6114032807       27.1483935323  SYS              5   0.00000
       168         5  MOL       H24            13.8002148917       24.8737158084       26.7013868455  SYS              5   0.00000
       169         5  MOL       H25            10.1555690699       26.1356106063       27.9411978446  SYS              5   0.00000
       170         5  MOL       H26             7.7240154400       24.1426823791       34.6659776854  SYS              5   0.00000
       171         5  MOL       C27             8.7339503942       23.0157706335       36.0112147898  SYS              5   0.00000
       172         5  MOL       C28            10.1364442578       21.6316012657       37.4913973091  SYS              5   0.00000
       173         5  MOL       H29            11.7774400717       26.0564891710       26.3204471848  SYS              5   0.00000
       174         5  MOL       C30             7.7497199219       23.0326180290       37.0486076666  SYS              5   0.00000
       175         5  MOL       C31             9.1787774095       21.6746342553       38.4500720272  SYS              5   0.00000
       176         5  MOL       H32            10.9390618816       21.1504269297       37.6572677149  SYS              5   0.00000
       177         5  MOL       C33             7.9609198610       22.3890815011       38.2209459582  SYS              5   0.00000
       178         5  MOL       H34             6.9350191106       23.5014772234       36.9122565703  SYS              5   0.00000
       179         5  MOL       H35             9.3171908797       21.2295483650       39.2780183747  SYS              5   0.00000
       180         5  MOL       H36             7.2944160597       22.4123217276       38.8970787140  SYS              5   0.00000
       181         6  MOL       C1              8.2852989803       12.7146834419       19.7348298031  SYS              6   0.00000
       182         6  MOL       C2              7.3009358095       12.7195923585       20.7539488216  SYS              6   0.00000
       183         6  MOL       C3              9.5293958639       11.9855343702       19.9667672349  SYS              6   0.00000
       184         6  MOL       C4              8.1147138948       13.3947887318       18.5217267507  SYS              6   0.00000
       185         6  MOL       C5              7.4965703374       12.0603415672       21.9544007413  SYS              6   0.00000
       186         6  MOL       H6              6.4866353832       13.1872533128       20.6091636369  SYS              6   0.00000
       187         6  MOL       C7              9.6998280403       11.3088184062       21.1911157385  SYS              6   0.00000
       188         6  MOL       C8             10.5051569429       11.9803906716       18.9631107118  SYS              6   0.00000
       189         6  MOL       C9              9.0904749739       13.3896450332       17.5180702277  SYS              6   0.00000
       190         6  MOL       H10             7.3010619537       13.8672622382       18.3909983801  SYS              6   0.00000
       191         6  MOL       C11             6.5123398651       12.0771889627       22.9917936181  SYS              6   0.00000
       192         6  MOL       C12             8.7272499513       11.3360246394       22.1807154475  SYS              6   0.00000
       193         6  MOL       H13            10.5010224252       10.8212957989       21.3429293302  SYS              6   0.00000
       194         6  MOL       H14            11.3188088841       11.5079171652       19.0938390825  SYS              6   0.00000
       195         6  MOL       C15            10.3345718575       12.6604959616       17.7500076595  SYS              6   0.00000
       196         6  MOL       C16             8.9200427975       14.0663609973       16.2937217240  SYS              6   0.00000
       197         6  MOL       C17             6.7235398041       11.4336524348       24.1641319098  SYS              6   0.00000
       198         6  MOL       H18             5.6976390537       12.5460481572       22.8554425219  SYS              6   0.00000
       199         6  MOL       C19             8.8990642010       10.6761721994       23.4345832606  SYS              6   0.00000
       200         6  MOL       C20            11.3189350283       12.6555870450       16.7308886409  SYS              6   0.00000
       201         6  MOL       C21             9.8926208865       14.0391547641       15.3041220150  SYS              6   0.00000
       202         6  MOL       H22             8.1188484126       14.5538836046       16.1419081323  SYS              6   0.00000
       203         6  MOL       C23             7.9413973527       10.7192051890       24.3932579788  SYS              6   0.00000
       204         6  MOL       H24             6.0570360029       11.4568926613       24.8402646655  SYS              6   0.00000
       205         6  MOL       H25             9.7016818247       10.1949978635       23.6004536664  SYS              6   0.00000
       206         6  MOL       H26            12.1332354546       12.1879260907       16.8756738256  SYS              6   0.00000
       207         6  MOL       C27            11.1233005004       13.3148378362       15.5304367212  SYS              6   0.00000
       208         6  MOL       C28             9.7208066368       14.6990072040       14.0502542019  SYS              6   0.00000
       209         6  MOL       H29             8.0798108229       10.2741192987       25.2212043262  SYS              6   0.00000
       210         6  MOL       C30            12.1075309727       13.2979904407       14.4930438444  SYS              6   0.00000
       211         6  MOL       C31            10.6784734851       14.6559742145       13.0915794838  SYS              6   0.00000
       212         6  MOL       H32             8.9181890130       15.1801815400       13.8843837961  SYS              6   0.00000
       213         6  MOL       C33            11.8963310336       13.9415269686       13.3207055528  SYS              6   0.00000
       214         6  MOL       H34            12.9222317840       12.8291312463       14.6293949407  SYS              6   0.00000
       215         6  MOL       H35            10.5400600149       15.1010601047       12.2636331363  SYS              6   0.00000
       216         6  MOL       H36            12.5628348349       13.9182867421       12.6445727971  SYS              6   0.00000
       217         7  MOL       C1             10.8358332867       15.9373288146       31.8068217079  SYS              7   0.00000
       218         7  MOL       C2             11.8201964575       15.9324198980       30.7877026894  SYS              7   0.00000
       219         7  MOL       C3              9.5917364031       16.6664778863       31.5748842761  SYS              7   0.00000
       220         7  MOL       C4             11.0064183721       15.2572235247       33.0199247603  SYS              7   0.00000
       221         7  MOL       C5             11.6245619296       16.5916706893       29.5872507697  SYS              7   0.00000
       222         7  MOL       H6             12.6344968838       15.4647589437       30.9324878741  SYS              7   0.00000
       223         7  MOL       C7              9.4213042267       17.3431938503       30.3505357725  SYS              7   0.00000
       224         7  MOL       C8              8.6159753241       16.6716215848       32.5785407992  SYS              7   0.00000
       225         7  MOL       C9             10.0306572931       15.2623672232       34.0235812834  SYS              7   0.00000
       226         7  MOL       H10            11.8200703133       14.7847500182       33.1506531309  SYS              7   0.00000
       227         7  MOL       C11            12.6087924019       16.5748232937       28.5498578929  SYS              7   0.00000
       228         7  MOL       C12            10.3938823157       17.3159876171       29.3609360635  SYS              7   0.00000
       229         7  MOL       H13             8.6201098418       17.8307164576       30.1987221808  SYS              7   0.00000
       230         7  MOL       H14             7.8023233829       17.1440950913       32.4478124285  SYS              7   0.00000
       231         7  MOL       C15             8.7865604095       15.9915162949       33.7916438516  SYS              7   0.00000
       232         7  MOL       C16            10.2010894695       14.5856512592       35.2479297870  SYS              7   0.00000
       233         7  MOL       C17            12.3975924628       17.2183598217       27.3775196012  SYS              7   0.00000
       234         7  MOL       H18            13.4234932133       16.1059640993       28.6862089892  SYS              7   0.00000
       235         7  MOL       C19            10.2220680660       17.9758400570       28.1070682504  SYS              7   0.00000
       236         7  MOL       C20             7.8021972387       15.9964252115       34.8107628701  SYS              7   0.00000
       237         7  MOL       C21             9.2285113805       14.6128574924       36.2375294960  SYS              7   0.00000
       238         7  MOL       H22            11.0022838544       14.0981286519       35.3997433787  SYS              7   0.00000
       239         7  MOL       C23            11.1797349143       17.9328070675       27.1483935323  SYS              7   0.00000
       240         7  MOL       H24            13.0640962641       17.1951195952       26.7013868455  SYS              7   0.00000
       241         7  MOL       H25             9.4194504423       18.4570143930       27.9411978446  SYS              7   0.00000
       242         7  MOL       H26             6.9878968124       16.4640861658       34.6659776854  SYS              7   0.00000
       243         7  MOL       C27             7.9978317666       15.3371744203       36.0112147898  SYS              7   0.00000
       244         7  MOL       C28             9.4003256302       13.9530050525       37.4913973091  SYS              7   0.00000
       245         7  MOL       H29            11.0413214441       18.3778929578       26.3204471848  SYS              7   0.00000
       246         7  MOL       C30             7.0136012943       15.3540218158       37.0486076666  SYS              7   0.00000
       247         7  MOL       C31             8.4426587819       13.9960380420       38.4500720272  SYS              7   0.00000
       248         7  MOL       H32            10.2029432540       13.4718307165       37.6572677149  SYS              7   0.00000
       249         7  MOL       C33             7.2248012334       14.7104852878       38.2209459582  SYS              7   0.00000
       250         7  MOL       H34             6.1989004830       15.8228810102       36.9122565703  SYS              7   0.00000
       251         7  MOL       H35             8.5810722521       13.5509521517       39.2780183747  SYS              7   0.00000
       252         7  MOL       H36             6.5582974321       14.7337255143       38.8970787140  SYS              7   0.00000
       253         8  MOL       C1              7.0479189235        1.7592543756        5.6780157546  SYS              8   0.00000
       254         8  MOL       C2              6.0635557527        1.7641632922        6.6971347732  SYS              8   0.00000
       255         8  MOL       C3              8.2920158070        1.0301053039        5.9099531864  SYS              8   0.00000
       256         8  MOL       C4              6.8773338380        2.4393596655        4.4649127023  SYS              8   0.00000
       257         8  MOL       C5              6.2591902806        1.1049125010        7.8975866929  SYS              8   0.00000
       258         8  MOL       H6              5.2492553263        2.2318242465        6.5523495885  SYS              8   0.00000
       259         8  MOL       C7              8.4624479835        0.3533893399        7.1343016901  SYS              8   0.00000
       260         8  MOL       C8              9.2677768861        1.0249616054        4.9062966634  SYS              8   0.00000
       261         8  MOL       C9              7.8530949171        2.4342159670        3.4612561792  SYS              8   0.00000
       262         8  MOL       H10             6.0636818968        2.9118331720        4.3341843316  SYS              8   0.00000
       263         8  MOL       C11             5.2749598082        1.1217598965        8.9349795697  SYS              8   0.00000
       264         8  MOL       C12             7.4898698945        0.3805955731        8.1239013991  SYS              8   0.00000
       265         8  MOL       H13             9.2636423684       -0.1341332674        7.2861152818  SYS              8   0.00000
       266         8  MOL       H14            10.0814288273        0.5524880989        5.0370250340  SYS              8   0.00000
       267         8  MOL       C15             9.0971918006        1.7050668953        3.6931936110  SYS              8   0.00000
       268         8  MOL       C16             7.6826627406        3.1109319310        2.2369076756  SYS              8   0.00000
       269         8  MOL       C17             5.4861597473        0.4782233685       10.1073178613  SYS              8   0.00000
       270         8  MOL       H18             4.4602589969        1.5906190909        8.7986284734  SYS              8   0.00000
       271         8  MOL       C19             7.6616841441       -0.2792568668        9.3777692122  SYS              8   0.00000
       272         8  MOL       C20            10.0815549714        1.7001579787        2.6740745925  SYS              8   0.00000
       273         8  MOL       C21             8.6552408296        3.0837256978        1.2473079666  SYS              8   0.00000
       274         8  MOL       H22             6.8814683557        3.5984545383        2.0850940839  SYS              8   0.00000
       275         8  MOL       C23             6.7040172958       -0.2362238773       10.3364439303  SYS              8   0.00000
       276         8  MOL       H24             4.8196559461        0.5014635950       10.7834506170  SYS              8   0.00000
       277         8  MOL       H25             8.4643017679       -0.7604312028        9.5436396180  SYS              8   0.00000
       278         8  MOL       H26            10.8958553978        1.2324970244        2.8188597772  SYS              8   0.00000
       279         8  MOL       C27             9.8859204435        2.3594087699        1.4736226727  SYS              8   0.00000
       280         8  MOL       C28             8.4834265800        3.7435781377       -0.0065598466  SYS              8   0.00000
       281         8  MOL       H29             6.8424307661       -0.6813097676       11.1643902778  SYS              8   0.00000
       282         8  MOL       C30            10.8701509158        2.3425613744        0.4362297960  SYS              8   0.00000
       283         8  MOL       C31             9.4410934282        3.7005451482       -0.9652345647  SYS              8   0.00000
       284         8  MOL       H32             7.6808089562        4.2247524737       -0.1724302523  SYS              8   0.00000
       285         8  MOL       C33            10.6589509768        2.9860979024       -0.7361084957  SYS              8   0.00000
       286         8  MOL       H34            11.6848517272        1.8737021800        0.5725808922  SYS              8   0.00000
       287         8  MOL       H35             9.3026799580        4.1456310385       -1.7931809121  SYS              8   0.00000
       288         8  MOL       H36            11.3254547780        2.9628576759       -1.4122412514  SYS              8   0.00000
       289         9  MOL       C1             10.5694290558       17.0622593218        3.6931936110  SYS              9   0.00000
       290         9  MOL       C2             11.5537922266       17.0573504052        2.6740745925  SYS              9   0.00000
       291         9  MOL       C3              9.3253321723       17.7914083935        3.4612561792  SYS              9   0.00000
       292         9  MOL       C4             10.7400141413       16.3821540319        4.9062966634  SYS              9   0.00000
       293         9  MOL       C5             11.3581576987       17.7166011964        1.4736226727  SYS              9   0.00000
       294         9  MOL       H6             12.3680926530       16.5896894509        2.8188597772  SYS              9   0.00000
       295         9  MOL       C7              9.1548999958       18.4681243575        2.2369076756  SYS              9   0.00000
       296         9  MOL       C8              8.3495710932       17.7965520920        4.4649127023  SYS              9   0.00000
       297         9  MOL       C9              9.7642530622       16.3872977304        5.9099531864  SYS              9   0.00000
       298         9  MOL       H10            11.5536660825       15.9096805254        5.0370250340  SYS              9   0.00000
       299         9  MOL       C11            12.3423881711       17.6997538009        0.4362297960  SYS              9   0.00000
       300         9  MOL       C12            10.1274780848       18.4409181243        1.2473079666  SYS              9   0.00000
       301         9  MOL       H13             8.3537056109       18.9556469648        2.0850940839  SYS              9   0.00000
       302         9  MOL       H14             7.5359191520       18.2690255985        4.3341843316  SYS              9   0.00000
       303         9  MOL       C15             8.5201561787       17.1164468021        5.6780157546  SYS              9   0.00000
       304         9  MOL       C16             9.9346852387       15.7105817664        7.1343016901  SYS              9   0.00000
       305         9  MOL       C17            12.1311882320       18.3432903289       -0.7361084957  SYS              9   0.00000
       306         9  MOL       H18            13.1570889824       17.2308946065        0.5725808922  SYS              9   0.00000
       307         9  MOL       C19             9.9556638352       19.1007705642       -0.0065598466  SYS              9   0.00000
       308         9  MOL       C20             7.5357930079       17.1213557187        6.6971347732  SYS              9   0.00000
       309         9  MOL       C21             8.9621071497       15.7377879996        8.1239013991  SYS              9   0.00000
       310         9  MOL       H22            10.7358796236       15.2230591591        7.2861152818  SYS              9   0.00000
       311         9  MOL       C23            10.9133306835       19.0577375747       -0.9652345647  SYS              9   0.00000
       312         9  MOL       H24            12.7976920332       18.3200501024       -1.4122412514  SYS              9   0.00000
       313         9  MOL       H25             9.1530462114       19.5819449002       -0.1724302523  SYS              9   0.00000
       314         9  MOL       H26             6.7214925815       17.5890166730        6.5523495885  SYS              9   0.00000
       315         9  MOL       C27             7.7314275358       16.4621049274        7.8975866929  SYS              9   0.00000
       316         9  MOL       C28             9.1339213993       15.0779355596        9.3777692122  SYS              9   0.00000
       317         9  MOL       H29            10.7749172132       19.5028234649       -1.7931809121  SYS              9   0.00000
       318         9  MOL       C30             6.7471970635       16.4789523230        8.9349795697  SYS              9   0.00000
       319         9  MOL       C31             8.1762545511       15.1209685492       10.3364439303  SYS              9   0.00000
       320         9  MOL       H32             9.9365390231       14.5967612237        9.5436396180  SYS              9   0.00000
       321         9  MOL       C33             6.9583970025       15.8354157950       10.1073178613  SYS              9   0.00000
       322         9  MOL       H34             5.9324962521       16.9478115174        8.7986284734  SYS              9   0.00000
       323         9  MOL       H35             8.3146680213       14.6758826589       11.1643902778  SYS              9   0.00000
       324         9  MOL       H36             6.2918932013       15.8586560215       10.7834506170  SYS              9   0.00000
       325        10  MOL       C1             13.0367302577       26.9086903360       33.6060939061  SYS             10   0.00000
       326        10  MOL       C2             12.0448160771       26.3371227985       34.4382572978  SYS             10   0.00000
       327        10  MOL       C3             14.2675482811       27.3966666976       34.2105369102  SYS             10   0.00000
       328        10  MOL       C4             12.8573485666       27.0106611637       32.2186863595  SYS             10   0.00000
       329        10  MOL       C5             12.2234871623       26.2360421194       35.8130137117  SYS             10   0.00000
       330        10  MOL       H6             11.2394957967       26.0159966420       34.0488835486  SYS             10   0.00000
       331        10  MOL       C7             14.4239776459       27.2772502889       35.6021615010  SYS             10   0.00000
       332        10  MOL       C8             15.2487010124       27.9539725856       33.3797791999  SYS             10   0.00000
       333        10  MOL       C9             13.8385012979       27.5679670517       31.3879286493  SYS             10   0.00000
       334        10  MOL       H10            12.0438443799       26.6934672067       31.8461807872  SYS             10   0.00000
       335        10  MOL       C11            11.2274769747       25.6501835447       36.6761020943  SYS             10   0.00000
       336        10  MOL       C12            13.4480538750       26.7119577131       36.4118339902  SYS             10   0.00000
       337        10  MOL       H13            15.2253448606       27.5948550346       36.0027807014  SYS             10   0.00000
       338        10  MOL       H14            16.0622051991       28.2711665426       33.7522847722  SYS             10   0.00000
       339        10  MOL       C15            15.0693193213       28.0559434132       31.9923716533  SYS             10   0.00000
       340        10  MOL       C16            13.6820719331       27.6873834604       29.9963040585  SYS             10   0.00000
       341        10  MOL       C17            11.4254493595       25.5529813472       38.0114994289  SYS             10   0.00000
       342        10  MOL       H18            10.4176763508       25.3261913442       36.3007851592  SYS             10   0.00000
       343        10  MOL       C19            13.6118649733       26.5866967231       37.8343835719  SYS             10   0.00000
       344        10  MOL       C20            16.0612335019       28.6275109508       31.1602082617  SYS             10   0.00000
       345        10  MOL       C21            14.6579957040       28.2526760362       29.1866315693  SYS             10   0.00000
       346        10  MOL       H22            12.8807047184       27.3697787146       29.5956848581  SYS             10   0.00000
       347        10  MOL       C23            12.6329009250       26.0356022831       38.5962628933  SYS             10   0.00000
       348        10  MOL       H24            10.7570154403       25.1612645481       38.5611208582  SYS             10   0.00000
       349        10  MOL       H25            14.4116806536       26.8931014619       38.2462482235  SYS             10   0.00000
       350        10  MOL       H26            16.8665537823       28.9486371072       31.5495820108  SYS             10   0.00000
       351        10  MOL       C27            15.8825624168       28.7285916299       29.7854518477  SYS             10   0.00000
       352        10  MOL       C28            14.4941846057       28.3779370261       27.7640819876  SYS             10   0.00000
       353        10  MOL       H29            12.7540369154       25.9707143411       39.5366637532  SYS             10   0.00000
       354        10  MOL       C30            16.8785726044       29.3144502045       28.9223634652  SYS             10   0.00000
       355        10  MOL       C31            15.4731486540       28.9290314661       27.0022026661  SYS             10   0.00000
       356        10  MOL       H32            13.6943689254       28.0715322873       27.3522173360  SYS             10   0.00000
       357        10  MOL       C33            16.6806002196       29.4116524020       27.5869661306  SYS             10   0.00000
       358        10  MOL       H34            17.6883732282       29.6384424051       29.2976804003  SYS             10   0.00000
       359        10  MOL       H35            15.3520126636       28.9939194082       26.0618018063  SYS             10   0.00000
       360        10  MOL       H36            17.3490341388       29.8033692011       27.0373447013  SYS             10   0.00000
       361        11  MOL       C1             10.5619701440        4.9978322035        5.4924658092  SYS             11   0.00000
       362        11  MOL       C2              9.5700559635        4.4262646659        6.3246292009  SYS             11   0.00000
       363        11  MOL       C3             11.7927881675        5.4858085650        6.0969088133  SYS             11   0.00000
       364        11  MOL       C4             10.3825884529        5.0998030311        4.1050582626  SYS             11   0.00000
       365        11  MOL       C5              9.7487270486        4.3251839868        7.6993856148  SYS             11   0.00000
       366        11  MOL       H6              8.7647356830        4.1051385095        5.9352554517  SYS             11   0.00000
       367        11  MOL       C7             11.9492175323        5.3663921563        7.4885334041  SYS             11   0.00000
       368        11  MOL       C8             12.7739408988        6.0431144530        5.2661511030  SYS             11   0.00000
       369        11  MOL       C9             11.3637411842        5.6571089191        3.2743005524  SYS             11   0.00000
       370        11  MOL       H10             9.5690842662        4.7826090741        3.7325526903  SYS             11   0.00000
       371        11  MOL       C11             8.7527168610        3.7393254122        8.5624739974  SYS             11   0.00000
       372        11  MOL       C12            10.9732937614        4.8010995805        8.2982058933  SYS             11   0.00000
       373        11  MOL       H13            12.7505847469        5.6839969021        7.8891526045  SYS             11   0.00000
       374        11  MOL       H14            13.5874450855        6.3603084100        5.6386566753  SYS             11   0.00000
       375        11  MOL       C15            12.5945592077        6.1450852807        3.8787435564  SYS             11   0.00000
       376        11  MOL       C16            11.2073118194        5.7765253278        1.8826759616  SYS             11   0.00000
       377        11  MOL       C17             8.9506892458        3.6421232146        9.8978713320  SYS             11   0.00000
       378        11  MOL       H18             7.9429162371        3.4153332116        8.1871570623  SYS             11   0.00000
       379        11  MOL       C19            11.1371048597        4.6758385906        9.7207554750  SYS             11   0.00000
       380        11  MOL       C20            13.5864733882        6.7166528182        3.0465801648  SYS             11   0.00000
       381        11  MOL       C21            12.1832355903        6.3418179036        1.0730034724  SYS             11   0.00000
       382        11  MOL       H22            10.4059446048        5.4589205821        1.4820567612  SYS             11   0.00000
       383        11  MOL       C23            10.1581408114        4.1247441506       10.4826347964  SYS             11   0.00000
       384        11  MOL       H24             8.2822553266        3.2504064156       10.4474927613  SYS             11   0.00000
       385        11  MOL       H25            11.9369205399        4.9822433294       10.1326201266  SYS             11   0.00000
       386        11  MOL       H26            14.3917936686        7.0377789746        3.4359539139  SYS             11   0.00000
       387        11  MOL       C27            13.4078023031        6.8177334973        1.6718237508  SYS             11   0.00000
       388        11  MOL       C28            12.0194244920        6.4670788936       -0.3495461093  SYS             11   0.00000
       389        11  MOL       H29            10.2792768018        4.0598562085       11.4230356562  SYS             11   0.00000
       390        11  MOL       C30            14.4038124907        7.4035920720        0.8087353683  SYS             11   0.00000
       391        11  MOL       C31            12.9983885403        7.0181733336       -1.1114254308  SYS             11   0.00000
       392        11  MOL       H32            11.2196088118        6.1606741547       -0.7614107610  SYS             11   0.00000
       393        11  MOL       C33            14.2058401059        7.5007942695       -0.5266619663  SYS             11   0.00000
       394        11  MOL       H34            15.2136131146        7.7275842725        1.1840523033  SYS             11   0.00000
       395        11  MOL       H35            12.8772525499        7.0830612756       -2.0518262906  SYS             11   0.00000
       396        11  MOL       H36            14.8742740251        7.8925110686       -1.0762833956  SYS             11   0.00000
       397        12  MOL       C1             13.5970820661       12.6987509867       31.9923716533  SYS             12   0.00000
       398        12  MOL       C2             14.5889962467       13.2703185243       31.1602082617  SYS             12   0.00000
       399        12  MOL       C3             12.3662640427       12.2107746252       31.3879286493  SYS             12   0.00000
       400        12  MOL       C4             13.7764637572       12.5967801591       33.3797791999  SYS             12   0.00000
       401        12  MOL       C5             14.4103251616       13.3713992034       29.7854518477  SYS             12   0.00000
       402        12  MOL       H6             15.3943165271       13.5914446807       31.5495820108  SYS             12   0.00000
       403        12  MOL       C7             12.2098346779       12.3301910339       29.9963040585  SYS             12   0.00000
       404        12  MOL       C8             11.3851113114       11.6534687372       32.2186863595  SYS             12   0.00000
       405        12  MOL       C9             12.7953110259       12.0394742711       34.2105369102  SYS             12   0.00000
       406        12  MOL       H10            14.5899679439       12.9139741161       33.7522847722  SYS             12   0.00000
       407        12  MOL       C11            15.4063353491       13.9572577780       28.9223634652  SYS             12   0.00000
       408        12  MOL       C12            13.1857584488       12.8954836097       29.1866315693  SYS             12   0.00000
       409        12  MOL       H13            11.4084674632       12.0125862881       29.5956848581  SYS             12   0.00000
       410        12  MOL       H14            10.5716071247       11.3362747802       31.8461807872  SYS             12   0.00000
       411        12  MOL       C15            11.5644930025       11.5514979095       33.6060939061  SYS             12   0.00000
       412        12  MOL       C16            12.9517403907       11.9200578624       35.6021615010  SYS             12   0.00000
       413        12  MOL       C17            15.2083629644       14.0544599756       27.5869661306  SYS             12   0.00000
       414        12  MOL       H18            16.2161359730       14.2812499786       29.2976804003  SYS             12   0.00000
       415        12  MOL       C19            13.0219473505       13.0207445996       27.7640819876  SYS             12   0.00000
       416        12  MOL       C20            10.5725788219       10.9799303720       34.4382572978  SYS             12   0.00000
       417        12  MOL       C21            11.9758166198       11.3547652866       36.4118339902  SYS             12   0.00000
       418        12  MOL       H22            13.7531076054       12.2376626081       36.0027807014  SYS             12   0.00000
       419        12  MOL       C23            14.0009113988       13.5718390396       27.0022026661  SYS             12   0.00000
       420        12  MOL       H24            15.8767968836       14.4461767746       27.0373447013  SYS             12   0.00000
       421        12  MOL       H25            12.2221316702       12.7143398608       27.3522173360  SYS             12   0.00000
       422        12  MOL       H26             9.7672585415       10.6588042156       34.0488835486  SYS             12   0.00000
       423        12  MOL       C27            10.7512499071       10.8788496929       35.8130137117  SYS             12   0.00000
       424        12  MOL       C28            12.1396277181       11.2295042966       37.8343835719  SYS             12   0.00000
       425        12  MOL       H29            13.8797754084       13.6367269817       26.0618018063  SYS             12   0.00000
       426        12  MOL       C30             9.7552397195       10.2929911182       36.6761020943  SYS             12   0.00000
       427        12  MOL       C31            11.1606636698       10.6784098566       38.5962628933  SYS             12   0.00000
       428        12  MOL       H32            12.9394433984       11.5359090355       38.2462482235  SYS             12   0.00000
       429        12  MOL       C33             9.9532121043       10.1957889207       38.0114994289  SYS             12   0.00000
       430        12  MOL       H34             8.9454390956        9.9689989177       36.3007851592  SYS             12   0.00000
       431        12  MOL       H35            11.2817996602       10.6135219146       39.5366637532  SYS             12   0.00000
       432        12  MOL       H36             9.2847781851        9.8040721216       38.5611208582  SYS             12   0.00000
       433        13  MOL       C1             13.0958206369        9.4219181337       17.9355576049  SYS             13   0.00000
       434        13  MOL       C2             14.0877348175        9.9934856713       17.1033942132  SYS             13   0.00000
       435        13  MOL       C3             11.8650026135        8.9339417722       17.3311146008  SYS             13   0.00000
       436        13  MOL       C4             13.2752023280        9.3199473061       19.3229651515  SYS             13   0.00000
       437        13  MOL       C5             13.9090637323       10.0945663503       15.7286377993  SYS             13   0.00000
       438        13  MOL       H6             14.8930550979       10.3146118277       17.4927679624  SYS             13   0.00000
       439        13  MOL       C7             11.7085732487        9.0533581808       15.9394900100  SYS             13   0.00000
       440        13  MOL       C8             10.8838498822        8.3766358841       18.1618723111  SYS             13   0.00000
       441        13  MOL       C9             12.2940495967        8.7626414180       20.1537228617  SYS             13   0.00000
       442        13  MOL       H10            14.0887065147        9.6371412631       19.6954707238  SYS             13   0.00000
       443        13  MOL       C11            14.9050739199       10.6804249250       14.8655494167  SYS             13   0.00000
       444        13  MOL       C12            12.6844970196        9.6186507567       15.1298175208  SYS             13   0.00000
       445        13  MOL       H13            10.9072060340        8.7357534351       15.5388708096  SYS             13   0.00000
       446        13  MOL       H14            10.0703456955        8.0594419271       17.7893667388  SYS             13   0.00000
       447        13  MOL       C15            11.0632315733        8.2746650565       19.5492798577  SYS             13   0.00000
       448        13  MOL       C16            12.4504789615        8.6432250094       21.5453474525  SYS             13   0.00000
       449        13  MOL       C17            14.7071015351       10.7776271225       13.5301520821  SYS             13   0.00000
       450        13  MOL       H18            15.7148745438       11.0044171256       15.2408663518  SYS             13   0.00000
       451        13  MOL       C19            12.5206859213        9.7439117466       13.7072679391  SYS             13   0.00000
       452        13  MOL       C20            10.0713173927        7.7030975189       20.3814432493  SYS             13   0.00000
       453        13  MOL       C21            11.4745551906        8.0779324335       22.3550199417  SYS             13   0.00000
       454        13  MOL       H22            13.2518461762        8.9608297551       21.9459666529  SYS             13   0.00000
       455        13  MOL       C23            13.4996499696       10.2950061866       12.9453886177  SYS             13   0.00000
       456        13  MOL       H24            15.3755354543       11.1693439216       12.9805306528  SYS             13   0.00000
       457        13  MOL       H25            11.7208702410        9.4375070078       13.2954032875  SYS             13   0.00000
       458        13  MOL       H26             9.2659971123        7.3819713625       19.9920695002  SYS             13   0.00000
       459        13  MOL       C27            10.2499884778        7.6020168399       21.7561996633  SYS             13   0.00000
       460        13  MOL       C28            11.6383662889        7.9526714436       23.7775695234  SYS             13   0.00000
       461        13  MOL       H29            13.3785139792       10.3598941286       12.0049877578  SYS             13   0.00000
       462        13  MOL       C30             9.2539782902        7.0161582652       22.6192880458  SYS             13   0.00000
       463        13  MOL       C31            10.6594022406        7.4015770036       24.5394488449  SYS             13   0.00000
       464        13  MOL       H32            12.4381819692        8.2590761824       24.1894341751  SYS             13   0.00000
       465        13  MOL       C33             9.4519506750        6.9189560677       23.9546853804  SYS             13   0.00000
       466        13  MOL       H34             8.4441776664        6.6921660646       22.2439711107  SYS             13   0.00000
       467        13  MOL       H35            10.7805382310        7.3366890616       25.4798497047  SYS             13   0.00000
       468        13  MOL       H36             8.7835167558        6.5272392686       24.5043068097  SYS             13   0.00000
       469        14  MOL       C1             12.5354688285       23.6318574830       19.5492798577  SYS             14   0.00000
       470        14  MOL       C2             11.5435546479       23.0602899454       20.3814432493  SYS             14   0.00000
       471        14  MOL       C3             13.7662868519       24.1198338445       20.1537228617  SYS             14   0.00000
       472        14  MOL       C4             12.3560871374       23.7338283106       18.1618723111  SYS             14   0.00000
       473        14  MOL       C5             11.7222257330       22.9592092664       21.7561996633  SYS             14   0.00000
       474        14  MOL       H6             10.7382343675       22.7391637890       19.9920695002  SYS             14   0.00000
       475        14  MOL       C7             13.9227162167       24.0004174358       21.5453474525  SYS             14   0.00000
       476        14  MOL       C8             14.7474395832       24.6771397326       19.3229651515  SYS             14   0.00000
       477        14  MOL       C9             13.3372398687       24.2911341987       17.3311146008  SYS             14   0.00000
       478        14  MOL       H10            11.5425829507       23.4166343536       17.7893667388  SYS             14   0.00000
       479        14  MOL       C11            10.7262155455       22.3733506917       22.6192880458  SYS             14   0.00000
       480        14  MOL       C12            12.9467924458       23.4351248600       22.3550199417  SYS             14   0.00000
       481        14  MOL       H13            14.7240834314       24.3180221816       21.9459666529  SYS             14   0.00000
       482        14  MOL       H14            15.5609437699       24.9943336896       19.6954707238  SYS             14   0.00000
       483        14  MOL       C15            14.5680578921       24.7791105602       17.9355576049  SYS             14   0.00000
       484        14  MOL       C16            13.1808105039       24.4105506073       15.9394900100  SYS             14   0.00000
       485        14  MOL       C17            10.9241879302       22.2761484942       23.9546853804  SYS             14   0.00000
       486        14  MOL       H18             9.9164149216       22.0493584911       22.2439711107  SYS             14   0.00000
       487        14  MOL       C19            13.1106035441       23.3098638701       23.7775695234  SYS             14   0.00000
       488        14  MOL       C20            15.5599720727       25.3506780977       17.1033942132  SYS             14   0.00000
       489        14  MOL       C21            14.1567342748       24.9758431831       15.1298175208  SYS             14   0.00000
       490        14  MOL       H22            12.3794432892       24.0929458616       15.5388708096  SYS             14   0.00000
       491        14  MOL       C23            12.1316394958       22.7587694301       24.5394488449  SYS             14   0.00000
       492        14  MOL       H24            10.2557540110       21.8844316951       24.5043068097  SYS             14   0.00000
       493        14  MOL       H25            13.9104192244       23.6162686089       24.1894341751  SYS             14   0.00000
       494        14  MOL       H26            16.3652923531       25.6718042542       17.4927679624  SYS             14   0.00000
       495        14  MOL       C27            15.3813009875       25.4517587768       15.7286377993  SYS             14   0.00000
       496        14  MOL       C28            13.9929231765       25.1011041731       13.7072679391  SYS             14   0.00000
       497        14  MOL       H29            12.2527754862       22.6938814881       25.4798497047  SYS             14   0.00000
       498        14  MOL       C30            16.3773111751       26.0376173515       14.8655494167  SYS             14   0.00000
       499        14  MOL       C31            14.9718872248       25.6521986131       12.9453886177  SYS             14   0.00000
       500        14  MOL       H32            13.1931074962       24.7946994343       13.2954032875  SYS             14   0.00000
       501        14  MOL       C33            16.1793387903       26.1348195490       13.5301520821  SYS             14   0.00000
       502        14  MOL       H34            17.1871117990       26.3616095521       15.2408663518  SYS             14   0.00000
       503        14  MOL       H35            14.8507512344       25.7170865551       12.0049877578  SYS             14   0.00000
       504        14  MOL       H36            16.8477727095       26.5265363481       12.9805306528  SYS             14   0.00000
       505        15  MOL       C1             13.8319392645       17.1005143469       17.9355576049  SYS             15   0.00000
       506        15  MOL       C2             14.8238534451       17.6720818845       17.1033942132  SYS             15   0.00000
       507        15  MOL       C3             12.6011212411       16.6125379854       17.3311146008  SYS             15   0.00000
       508        15  MOL       C4             14.0113209556       16.9985435193       19.3229651515  SYS             15   0.00000
       509        15  MOL       C5             14.6451823599       17.7731625636       15.7286377993  SYS             15   0.00000
       510        15  MOL       H6             15.6291737255       17.9932080409       17.4927679624  SYS             15   0.00000
       511        15  MOL       C7             12.4446918763       16.7319543941       15.9394900100  SYS             15   0.00000
       512        15  MOL       C8             11.6199685098       16.0552320974       18.1618723111  SYS             15   0.00000
       513        15  MOL       C9             13.0301682243       16.4412376313       20.1537228617  SYS             15   0.00000
       514        15  MOL       H10            14.8248251423       17.3157374763       19.6954707238  SYS             15   0.00000
       515        15  MOL       C11            15.6411925475       18.3590211383       14.8655494167  SYS             15   0.00000
       516        15  MOL       C12            13.4206156472       17.2972469699       15.1298175208  SYS             15   0.00000
       517        15  MOL       H13            11.6433246616       16.4143496484       15.5388708096  SYS             15   0.00000
       518        15  MOL       H14            10.8064643231       15.7380381404       17.7893667388  SYS             15   0.00000
       519        15  MOL       C15            11.7993502009       15.9532612698       19.5492798577  SYS             15   0.00000
       520        15  MOL       C16            13.1865975891       16.3218212226       21.5453474525  SYS             15   0.00000
       521        15  MOL       C17            15.4432201627       18.4562233358       13.5301520821  SYS             15   0.00000
       522        15  MOL       H18            16.4509931714       18.6830133388       15.2408663518  SYS             15   0.00000
       523        15  MOL       C19            13.2568045489       17.4225079599       13.7072679391  SYS             15   0.00000
       524        15  MOL       C20            10.8074360203       15.3816937322       20.3814432493  SYS             15   0.00000
       525        15  MOL       C21            12.2106738182       15.7565286468       22.3550199417  SYS             15   0.00000
       526        15  MOL       H22            13.9879648038       16.6394259683       21.9459666529  SYS             15   0.00000
       527        15  MOL       C23            14.2357685972       17.9736023999       12.9453886177  SYS             15   0.00000
       528        15  MOL       H24            16.1116540819       18.8479401349       12.9805306528  SYS             15   0.00000
       529        15  MOL       H25            12.4569888686       17.1161032210       13.2954032875  SYS             15   0.00000
       530        15  MOL       H26            10.0021157399       15.0605675758       19.9920695002  SYS             15   0.00000
       531        15  MOL       C27            10.9861071054       15.2806130531       21.7561996633  SYS             15   0.00000
       532        15  MOL       C28            12.3744849165       15.6312676568       23.7775695234  SYS             15   0.00000
       533        15  MOL       H29            14.1146326068       18.0384903419       12.0049877578  SYS             15   0.00000
       534        15  MOL       C30             9.9900969179       14.6947544784       22.6192880458  SYS             15   0.00000
       535        15  MOL       C31            11.3955208682       15.0801732168       24.5394488449  SYS             15   0.00000
       536        15  MOL       H32            13.1743005968       15.9376723957       24.1894341751  SYS             15   0.00000
       537        15  MOL       C33            10.1880693026       14.5975522809       23.9546853804  SYS             15   0.00000
       538        15  MOL       H34             9.1802962940       14.3707622779       22.2439711107  SYS             15   0.00000
       539        15  MOL       H35            11.5166568586       15.0152852748       25.4798497047  SYS             15   0.00000
       540        15  MOL       H36             9.5196353834       14.2058354818       24.5043068097  SYS             15   0.00000
       541        16  MOL       C1             13.3306778353       13.8236814939        3.8787435564  SYS             16   0.00000
       542        16  MOL       C2             14.3225920158       14.3952490315        3.0465801648  SYS             16   0.00000
       543        16  MOL       C3             12.0998598118       13.3357051324        3.2743005524  SYS             16   0.00000
       544        16  MOL       C4             13.5100595264       13.7217106663        5.2661511030  SYS             16   0.00000
       545        16  MOL       C5             14.1439209307       14.4963297106        1.6718237508  SYS             16   0.00000
       546        16  MOL       H6             15.1279122962       14.7163751879        3.4359539139  SYS             16   0.00000
       547        16  MOL       C7             11.9434304470       13.4551215411        1.8826759616  SYS             16   0.00000
       548        16  MOL       C8             11.1187070805       12.7783992443        4.1050582626  SYS             16   0.00000
       549        16  MOL       C9             12.5289067951       13.1644047782        6.0969088133  SYS             16   0.00000
       550        16  MOL       H10            14.3235637131       14.0389046233        5.6386566753  SYS             16   0.00000
       551        16  MOL       C11            15.1399311183       15.0821882852        0.8087353683  SYS             16   0.00000
       552        16  MOL       C12            12.9193542179       14.0204141169        1.0730034724  SYS             16   0.00000
       553        16  MOL       H13            11.1420632324       13.1375167953        1.4820567612  SYS             16   0.00000
       554        16  MOL       H14            10.3052028938       12.4612052873        3.7325526903  SYS             16   0.00000
       555        16  MOL       C15            11.2980887716       12.6764284167        5.4924658092  SYS             16   0.00000
       556        16  MOL       C16            12.6853361599       13.0449883696        7.4885334041  SYS             16   0.00000
       557        16  MOL       C17            14.9419587335       15.1793904827       -0.5266619663  SYS             16   0.00000
       558        16  MOL       H18            15.9497317422       15.4061804858        1.1840523033  SYS             16   0.00000
       559        16  MOL       C19            12.7555431196       14.1456751068       -0.3495461093  SYS             16   0.00000
       560        16  MOL       C20            10.3061745911       12.1048608792        6.3246292009  SYS             16   0.00000
       561        16  MOL       C21            11.7094123890       12.4796957938        8.2982058933  SYS             16   0.00000
       562        16  MOL       H22            13.4867033745       13.3625931153        7.8891526045  SYS             16   0.00000
       563        16  MOL       C23            13.7345071679       14.6967695468       -1.1114254308  SYS             16   0.00000
       564        16  MOL       H24            15.6103926527       15.5711072818       -1.0762833956  SYS             16   0.00000
       565        16  MOL       H25            11.9557274394       13.8392703680       -0.7614107610  SYS             16   0.00000
       566        16  MOL       H26             9.5008543107       11.7837347227        5.9352554517  SYS             16   0.00000
       567        16  MOL       C27            10.4848456762       12.0037802001        7.6993856148  SYS             16   0.00000
       568        16  MOL       C28            11.8732234873       12.3544348038        9.7207554750  SYS             16   0.00000
       569        16  MOL       H29            13.6133711775       14.7616574889       -2.0518262906  SYS             16   0.00000
       570        16  MOL       C30             9.4888354886       11.4179216254        8.5624739974  SYS             16   0.00000
       571        16  MOL       C31            10.8942594390       11.8033403638       10.4826347964  SYS             16   0.00000
       572        16  MOL       H32            12.6730391675       12.6608395426       10.1326201266  SYS             16   0.00000
       573        16  MOL       C33             9.6868078734       11.3207194279        9.8978713320  SYS             16   0.00000
       574        16  MOL       H34             8.6790348647       11.0939294249        8.1871570623  SYS             16   0.00000
       575        16  MOL       H35            11.0153954294       11.7384524218       11.4230356562  SYS             16   0.00000
       576        16  MOL       H36             9.0183739542       10.9290026288       10.4474927613  SYS             16   0.00000
       577        17  MOL       C1             14.3332006937       20.3773472000       31.9923716533  SYS             17   0.00000
       578        17  MOL       C2             15.3251148743       20.9489147375       31.1602082617  SYS             17   0.00000
       579        17  MOL       C3             13.1023826703       19.8893708384       31.3879286493  SYS             17   0.00000
       580        17  MOL       C4             14.5125823848       20.2753763723       33.3797791999  SYS             17   0.00000
       581        17  MOL       C5             15.1464437892       21.0499954166       29.7854518477  SYS             17   0.00000
       582        17  MOL       H6             16.1304351547       21.2700408940       31.5495820108  SYS             17   0.00000
       583        17  MOL       C7             12.9459533055       20.0087872471       29.9963040585  SYS             17   0.00000
       584        17  MOL       C8             12.1212299390       19.3320649504       32.2186863595  SYS             17   0.00000
       585        17  MOL       C9             13.5314296535       19.7180704843       34.2105369102  SYS             17   0.00000
       586        17  MOL       H10            15.3260865715       20.5925703294       33.7522847722  SYS             17   0.00000
       587        17  MOL       C11            16.1424539767       21.6358539913       28.9223634652  SYS             17   0.00000
       588        17  MOL       C12            13.9218770764       20.5740798229       29.1866315693  SYS             17   0.00000
       589        17  MOL       H13            12.1445860908       19.6911825014       29.5956848581  SYS             17   0.00000
       590        17  MOL       H14            11.3077257523       19.0148709934       31.8461807872  SYS             17   0.00000
       591        17  MOL       C15            12.3006116301       19.2300941228       33.6060939061  SYS             17   0.00000
       592        17  MOL       C16            13.6878590183       19.5986540756       35.6021615010  SYS             17   0.00000
       593        17  MOL       C17            15.9444815920       21.7330561888       27.5869661306  SYS             17   0.00000
       594        17  MOL       H18            16.9522546006       21.9598461918       29.2976804003  SYS             17   0.00000
       595        17  MOL       C19            13.7580659781       20.6993408129       27.7640819876  SYS             17   0.00000
       596        17  MOL       C20            11.3086974495       18.6585265852       34.4382572978  SYS             17   0.00000
       597        17  MOL       C21            12.7119352474       19.0333614998       36.4118339902  SYS             17   0.00000
       598        17  MOL       H22            14.4892262330       19.9162588214       36.0027807014  SYS             17   0.00000
       599        17  MOL       C23            14.7370300264       21.2504352529       27.0022026661  SYS             17   0.00000
       600        17  MOL       H24            16.6129155112       22.1247729879       27.0373447013  SYS             17   0.00000
       601        17  MOL       H25            12.9582502978       20.3929360741       27.3522173360  SYS             17   0.00000
       602        17  MOL       H26            10.5033771691       18.3374004288       34.0488835486  SYS             17   0.00000
       603        17  MOL       C27            11.4873685347       18.5574459061       35.8130137117  SYS             17   0.00000
       604        17  MOL       C28            12.8757463457       18.9081005099       37.8343835719  SYS             17   0.00000
       605        17  MOL       H29            14.6158940360       21.3153231949       26.0618018063  SYS             17   0.00000
       606        17  MOL       C30            10.4913583471       17.9715873315       36.6761020943  SYS             17   0.00000
       607        17  MOL       C31            11.8967822974       18.3570060699       38.5962628933  SYS             17   0.00000
       608        17  MOL       H32            13.6755620260       19.2145052487       38.2462482235  SYS             17   0.00000
       609        17  MOL       C33            10.6893307319       17.8743851340       38.0114994289  SYS             17   0.00000
       610        17  MOL       H34             9.6815577232       17.6475951309       36.3007851592  SYS             17   0.00000
       611        17  MOL       H35            12.0179182878       18.2921181278       39.5366637532  SYS             17   0.00000
       612        17  MOL       H36            10.0208968127       17.4826683349       38.5611208582  SYS             17   0.00000
       613        18  MOL       C1             12.0342073992       20.3550246300        5.4924658092  SYS             18   0.00000
       614        18  MOL       C2             11.0422932187       19.7834570924        6.3246292009  SYS             18   0.00000
       615        18  MOL       C3             13.2650254227       20.8430009915        6.0969088133  SYS             18   0.00000
       616        18  MOL       C4             11.8548257081       20.4569954576        4.1050582626  SYS             18   0.00000
       617        18  MOL       C5             11.2209643038       19.6823764133        7.6993856148  SYS             18   0.00000
       618        18  MOL       H6             10.2369729383       19.4623309360        5.9352554517  SYS             18   0.00000
       619        18  MOL       C7             13.4214547875       20.7235845828        7.4885334041  SYS             18   0.00000
       620        18  MOL       C8             14.2461781540       21.4003068795        5.2661511030  SYS             18   0.00000
       621        18  MOL       C9             12.8359784394       21.0143013456        3.2743005524  SYS             18   0.00000
       622        18  MOL       H10            11.0413215214       20.1398015006        3.7325526903  SYS             18   0.00000
       623        18  MOL       C11            10.2249541162       19.0965178387        8.5624739974  SYS             18   0.00000
       624        18  MOL       C12            12.4455310166       20.1582920070        8.2982058933  SYS             18   0.00000
       625        18  MOL       H13            14.2228220021       21.0411893286        7.8891526045  SYS             18   0.00000
       626        18  MOL       H14            15.0596823407       21.7175008365        5.6386566753  SYS             18   0.00000
       627        18  MOL       C15            14.0667964629       21.5022777072        3.8787435564  SYS             18   0.00000
       628        18  MOL       C16            12.6795490746       21.1337177543        1.8826759616  SYS             18   0.00000
       629        18  MOL       C17            10.4229265010       18.9993156411        9.8978713320  SYS             18   0.00000
       630        18  MOL       H18             9.4151534923       18.7725256381        8.1871570623  SYS             18   0.00000
       631        18  MOL       C19            12.6093421149       20.0330310171        9.7207554750  SYS             18   0.00000
       632        18  MOL       C20            15.0587106434       22.0738452447        3.0465801648  SYS             18   0.00000
       633        18  MOL       C21            13.6554728455       21.6990103301        1.0730034724  SYS             18   0.00000
       634        18  MOL       H22            11.8781818600       20.8161130086        1.4820567612  SYS             18   0.00000
       635        18  MOL       C23            11.6303780666       19.4819365770       10.4826347964  SYS             18   0.00000
       636        18  MOL       H24             9.7544925818       18.6075988421       10.4474927613  SYS             18   0.00000
       637        18  MOL       H25            13.4091577951       20.3394357559       10.1326201266  SYS             18   0.00000
       638        18  MOL       H26            15.8640309239       22.3949714011        3.4359539139  SYS             18   0.00000
       639        18  MOL       C27            14.8800395583       22.1749259238        1.6718237508  SYS             18   0.00000
       640        18  MOL       C28            13.4916617472       21.8242713201       -0.3495461093  SYS             18   0.00000
       641        18  MOL       H29            11.7515140570       19.4170486350       11.4230356562  SYS             18   0.00000
       642        18  MOL       C30            15.8760497459       22.7607844985        0.8087353683  SYS             18   0.00000
       643        18  MOL       C31            14.4706257955       22.3753657601       -1.1114254308  SYS             18   0.00000
       644        18  MOL       H32            12.6918460670       21.5178665812       -0.7614107610  SYS             18   0.00000
       645        18  MOL       C33            15.6780773611       22.8579866960       -0.5266619663  SYS             18   0.00000
       646        18  MOL       H34            16.6858503698       23.0847766990        1.1840523033  SYS             18   0.00000
       647        18  MOL       H35            14.3494898051       22.4402537021       -2.0518262906  SYS             18   0.00000
       648        18  MOL       H36            16.3465112803       23.2497034951       -1.0762833956  SYS             18   0.00000
       649        19  MOL       C1              4.2866701440        4.9978322035        5.4924658092  SYS             19   0.00000
       650        19  MOL       C2              3.2947559635        4.4262646659        6.3246292009  SYS             19   0.00000
       651        19  MOL       C3              5.5174881675        5.4858085650        6.0969088133  SYS             19   0.00000
       652        19  MOL       C4              4.1072884529        5.0998030311        4.1050582626  SYS             19   0.00000
       653        19  MOL       C5              3.4734270486        4.3251839868        7.6993856148  SYS             19   0.00000
       654        19  MOL       H6              2.4894356830        4.1051385095        5.9352554517  SYS             19   0.00000
       655        19  MOL       C7              5.6739175323        5.3663921563        7.4885334041  SYS             19   0.00000
       656        19  MOL       C8              6.4986408988        6.0431144530        5.2661511030  SYS             19   0.00000
       657        19  MOL       C9              5.0884411842        5.6571089191        3.2743005524  SYS             19   0.00000
       658        19  MOL       H10             3.2937842662        4.7826090741        3.7325526903  SYS             19   0.00000
       659        19  MOL       C11             2.4774168610        3.7393254122        8.5624739974  SYS             19   0.00000
       660        19  MOL       C12             4.6979937614        4.8010995805        8.2982058933  SYS             19   0.00000
       661        19  MOL       H13             6.4752847469        5.6839969021        7.8891526045  SYS             19   0.00000
       662        19  MOL       H14             7.3121450855        6.3603084100        5.6386566753  SYS             19   0.00000
       663        19  MOL       C15             6.3192592077        6.1450852807        3.8787435564  SYS             19   0.00000
       664        19  MOL       C16             4.9320118194        5.7765253278        1.8826759616  SYS             19   0.00000
       665        19  MOL       C17             2.6753892458        3.6421232146        9.8978713320  SYS             19   0.00000
       666        19  MOL       H18             1.6676162371        3.4153332116        8.1871570623  SYS             19   0.00000
       667        19  MOL       C19             4.8618048597        4.6758385906        9.7207554750  SYS             19   0.00000
       668        19  MOL       C20             7.3111733882        6.7166528182        3.0465801648  SYS             19   0.00000
       669        19  MOL       C21             5.9079355903        6.3418179036        1.0730034724  SYS             19   0.00000
       670        19  MOL       H22             4.1306446048        5.4589205821        1.4820567612  SYS             19   0.00000
       671        19  MOL       C23             3.8828408114        4.1247441506       10.4826347964  SYS             19   0.00000
       672        19  MOL       H24             2.0069553266        3.2504064156       10.4474927613  SYS             19   0.00000
       673        19  MOL       H25             5.6616205399        4.9822433294       10.1326201266  SYS             19   0.00000
       674        19  MOL       H26             8.1164936686        7.0377789746        3.4359539139  SYS             19   0.00000
       675        19  MOL       C27             7.1325023031        6.8177334973        1.6718237508  SYS             19   0.00000
       676        19  MOL       C28             5.7441244920        6.4670788936       -0.3495461093  SYS             19   0.00000
       677        19  MOL       H29             4.0039768018        4.0598562085       11.4230356562  SYS             19   0.00000
       678        19  MOL       C30             8.1285124907        7.4035920720        0.8087353683  SYS             19   0.00000
       679        19  MOL       C31             6.7230885403        7.0181733336       -1.1114254308  SYS             19   0.00000
       680        19  MOL       H32             4.9443088118        6.1606741547       -0.7614107610  SYS             19   0.00000
       681        19  MOL       C33             7.9305401059        7.5007942695       -0.5266619663  SYS             19   0.00000
       682        19  MOL       H34             8.9383131146        7.7275842725        1.1840523033  SYS             19   0.00000
       683        19  MOL       H35             6.6019525499        7.0830612756       -2.0518262906  SYS             19   0.00000
       684        19  MOL       H36             8.5989740251        7.8925110686       -1.0762833956  SYS             19   0.00000
       685        20  MOL       C1              5.0227887716       12.6764284167        5.4924658092  SYS             20   0.00000
       686        20  MOL       C2              4.0308745911       12.1048608792        6.3246292009  SYS             20   0.00000
       687        20  MOL       C3              6.2536067951       13.1644047782        6.0969088133  SYS             20   0.00000
       688        20  MOL       C4              4.8434070805       12.7783992443        4.1050582626  SYS             20   0.00000
       689        20  MOL       C5              4.2095456762       12.0037802001        7.6993856148  SYS             20   0.00000
       690        20  MOL       H6              3.2255543107       11.7837347227        5.9352554517  SYS             20   0.00000
       691        20  MOL       C7              6.4100361599       13.0449883696        7.4885334041  SYS             20   0.00000
       692        20  MOL       C8              7.2347595264       13.7217106663        5.2661511030  SYS             20   0.00000
       693        20  MOL       C9              5.8245598118       13.3357051324        3.2743005524  SYS             20   0.00000
       694        20  MOL       H10             4.0299028938       12.4612052873        3.7325526903  SYS             20   0.00000
       695        20  MOL       C11             3.2135354886       11.4179216254        8.5624739974  SYS             20   0.00000
       696        20  MOL       C12             5.4341123890       12.4796957938        8.2982058933  SYS             20   0.00000
       697        20  MOL       H13             7.2114033745       13.3625931153        7.8891526045  SYS             20   0.00000
       698        20  MOL       H14             8.0482637131       14.0389046233        5.6386566753  SYS             20   0.00000
       699        20  MOL       C15             7.0553778353       13.8236814939        3.8787435564  SYS             20   0.00000
       700        20  MOL       C16             5.6681304470       13.4551215411        1.8826759616  SYS             20   0.00000
       701        20  MOL       C17             3.4115078734       11.3207194279        9.8978713320  SYS             20   0.00000
       702        20  MOL       H18             2.4037348647       11.0939294249        8.1871570623  SYS             20   0.00000
       703        20  MOL       C19             5.5979234873       12.3544348038        9.7207554750  SYS             20   0.00000
       704        20  MOL       C20             8.0472920158       14.3952490315        3.0465801648  SYS             20   0.00000
       705        20  MOL       C21             6.6440542179       14.0204141169        1.0730034724  SYS             20   0.00000
       706        20  MOL       H22             4.8667632324       13.1375167953        1.4820567612  SYS             20   0.00000
       707        20  MOL       C23             4.6189594390       11.8033403638       10.4826347964  SYS             20   0.00000
       708        20  MOL       H24             2.7430739542       10.9290026288       10.4474927613  SYS             20   0.00000
       709        20  MOL       H25             6.3977391675       12.6608395426       10.1326201266  SYS             20   0.00000
       710        20  MOL       H26             8.8526122962       14.7163751879        3.4359539139  SYS             20   0.00000
       711        20  MOL       C27             7.8686209307       14.4963297106        1.6718237508  SYS             20   0.00000
       712        20  MOL       C28             6.4802431196       14.1456751068       -0.3495461093  SYS             20   0.00000
       713        20  MOL       H29             4.7400954294       11.7384524218       11.4230356562  SYS             20   0.00000
       714        20  MOL       C30             8.8646311183       15.0821882852        0.8087353683  SYS             20   0.00000
       715        20  MOL       C31             7.4592071679       14.6967695468       -1.1114254308  SYS             20   0.00000
       716        20  MOL       H32             5.6804274394       13.8392703680       -0.7614107610  SYS             20   0.00000
       717        20  MOL       C33             8.6666587335       15.1793904827       -0.5266619663  SYS             20   0.00000
       718        20  MOL       H34             9.6744317422       15.4061804858        1.1840523033  SYS             20   0.00000
       719        20  MOL       H35             7.3380711775       14.7616574889       -2.0518262906  SYS             20   0.00000
       720        20  MOL       H36             9.3350926527       15.5711072818       -1.0762833956  SYS             20   0.00000
       721        21  MOL       C1              5.7589073992       20.3550246300        5.4924658092  SYS             21   0.00000
       722        21  MOL       C2              4.7669932187       19.7834570924        6.3246292009  SYS             21   0.00000
       723        21  MOL       C3              6.9897254227       20.8430009915        6.0969088133  SYS             21   0.00000
       724        21  MOL       C4              5.5795257081       20.4569954576        4.1050582626  SYS             21   0.00000
       725        21  MOL       C5              4.9456643038       19.6823764133        7.6993856148  SYS             21   0.00000
       726        21  MOL       H6              3.9616729383       19.4623309360        5.9352554517  SYS             21   0.00000
       727        21  MOL       C7              7.1461547875       20.7235845828        7.4885334041  SYS             21   0.00000
       728        21  MOL       C8              7.9708781540       21.4003068795        5.2661511030  SYS             21   0.00000
       729        21  MOL       C9              6.5606784394       21.0143013456        3.2743005524  SYS             21   0.00000
       730        21  MOL       H10             4.7660215214       20.1398015006        3.7325526903  SYS             21   0.00000
       731        21  MOL       C11             3.9496541162       19.0965178387        8.5624739974  SYS             21   0.00000
       732        21  MOL       C12             6.1702310166       20.1582920070        8.2982058933  SYS             21   0.00000
       733        21  MOL       H13             7.9475220021       21.0411893286        7.8891526045  SYS             21   0.00000
       734        21  MOL       H14             8.7843823407       21.7175008365        5.6386566753  SYS             21   0.00000
       735        21  MOL       C15             7.7914964629       21.5022777072        3.8787435564  SYS             21   0.00000
       736        21  MOL       C16             6.4042490746       21.1337177543        1.8826759616  SYS             21   0.00000
       737        21  MOL       C17             4.1476265010       18.9993156411        9.8978713320  SYS             21   0.00000
       738        21  MOL       H18             3.1398534923       18.7725256381        8.1871570623  SYS             21   0.00000
       739        21  MOL       C19             6.3340421149       20.0330310171        9.7207554750  SYS             21   0.00000
       740        21  MOL       C20             8.7834106434       22.0738452447        3.0465801648  SYS             21   0.00000
       741        21  MOL       C21             7.3801728455       21.6990103301        1.0730034724  SYS             21   0.00000
       742        21  MOL       H22             5.6028818600       20.8161130086        1.4820567612  SYS             21   0.00000
       743        21  MOL       C23             5.3550780666       19.4819365770       10.4826347964  SYS             21   0.00000
       744        21  MOL       H24             3.4791925818       18.6075988421       10.4474927613  SYS             21   0.00000
       745        21  MOL       H25             7.1338577951       20.3394357559       10.1326201266  SYS             21   0.00000
       746        21  MOL       H26             9.5887309239       22.3949714011        3.4359539139  SYS             21   0.00000
       747        21  MOL       C27             8.6047395583       22.1749259238        1.6718237508  SYS             21   0.00000
       748        21  MOL       C28             7.2163617472       21.8242713201       -0.3495461093  SYS             21   0.00000
       749        21  MOL       H29             5.4762140570       19.4170486350       11.4230356562  SYS             21   0.00000
       750        21  MOL       C30             9.6007497459       22.7607844985        0.8087353683  SYS             21   0.00000
       751        21  MOL       C31             8.1953257955       22.3753657601       -1.1114254308  SYS             21   0.00000
       752        21  MOL       H32             6.4165460670       21.5178665812       -0.7614107610  SYS             21   0.00000
       753        21  MOL       C33             9.4027773611       22.8579866960       -0.5266619663  SYS             21   0.00000
       754        21  MOL       H34            10.4105503698       23.0847766990        1.1840523033  SYS             21   0.00000
       755        21  MOL       H35             8.0741898051       22.4402537021       -2.0518262906  SYS             21   0.00000
       756        21  MOL       H36            10.0712112803       23.2497034951       -1.0762833956  SYS             21   0.00000
       757        22  MOL       C1              4.7879315733        8.2746650565       19.5492798577  SYS             22   0.00000
       758        22  MOL       C2              3.7960173927        7.7030975189       20.3814432493  SYS             22   0.00000
       759        22  MOL       C3              6.0187495967        8.7626414180       20.1537228617  SYS             22   0.00000
       760        22  MOL       C4              4.6085498822        8.3766358841       18.1618723111  SYS             22   0.00000
       761        22  MOL       C5              3.9746884778        7.6020168399       21.7561996633  SYS             22   0.00000
       762        22  MOL       H6              2.9906971123        7.3819713625       19.9920695002  SYS             22   0.00000
       763        22  MOL       C7              6.1751789615        8.6432250094       21.5453474525  SYS             22   0.00000
       764        22  MOL       C8              6.9999023280        9.3199473061       19.3229651515  SYS             22   0.00000
       765        22  MOL       C9              5.5897026135        8.9339417722       17.3311146008  SYS             22   0.00000
       766        22  MOL       H10             3.7950456955        8.0594419271       17.7893667388  SYS             22   0.00000
       767        22  MOL       C11             2.9786782902        7.0161582652       22.6192880458  SYS             22   0.00000
       768        22  MOL       C12             5.1992551906        8.0779324335       22.3550199417  SYS             22   0.00000
       769        22  MOL       H13             6.9765461762        8.9608297551       21.9459666529  SYS             22   0.00000
       770        22  MOL       H14             7.8134065147        9.6371412631       19.6954707238  SYS             22   0.00000
       771        22  MOL       C15             6.8205206369        9.4219181337       17.9355576049  SYS             22   0.00000
       772        22  MOL       C16             5.4332732487        9.0533581808       15.9394900100  SYS             22   0.00000
       773        22  MOL       C17             3.1766506750        6.9189560677       23.9546853804  SYS             22   0.00000
       774        22  MOL       H18             2.1688776664        6.6921660646       22.2439711107  SYS             22   0.00000
       775        22  MOL       C19             5.3630662889        7.9526714436       23.7775695234  SYS             22   0.00000
       776        22  MOL       C20             7.8124348175        9.9934856713       17.1033942132  SYS             22   0.00000
       777        22  MOL       C21             6.4091970196        9.6186507567       15.1298175208  SYS             22   0.00000
       778        22  MOL       H22             4.6319060340        8.7357534351       15.5388708096  SYS             22   0.00000
       779        22  MOL       C23             4.3841022406        7.4015770036       24.5394488449  SYS             22   0.00000
       780        22  MOL       H24             2.5082167558        6.5272392686       24.5043068097  SYS             22   0.00000
       781        22  MOL       H25             6.1628819692        8.2590761824       24.1894341751  SYS             22   0.00000
       782        22  MOL       H26             8.6177550979       10.3146118277       17.4927679624  SYS             22   0.00000
       783        22  MOL       C27             7.6337637323       10.0945663503       15.7286377993  SYS             22   0.00000
       784        22  MOL       C28             6.2453859213        9.7439117466       13.7072679391  SYS             22   0.00000
       785        22  MOL       H29             4.5052382310        7.3366890616       25.4798497047  SYS             22   0.00000
       786        22  MOL       C30             8.6297739199       10.6804249250       14.8655494167  SYS             22   0.00000
       787        22  MOL       C31             7.2243499696       10.2950061866       12.9453886177  SYS             22   0.00000
       788        22  MOL       H32             5.4455702410        9.4375070078       13.2954032875  SYS             22   0.00000
       789        22  MOL       C33             8.4318015351       10.7776271225       13.5301520821  SYS             22   0.00000
       790        22  MOL       H34             9.4395745438       11.0044171256       15.2408663518  SYS             22   0.00000
       791        22  MOL       H35             7.1032139792       10.3598941286       12.0049877578  SYS             22   0.00000
       792        22  MOL       H36             9.1002354543       11.1693439216       12.9805306528  SYS             22   0.00000
       793        23  MOL       C1              5.2891930025       11.5514979095       33.6060939061  SYS             23   0.00000
       794        23  MOL       C2              4.2972788219       10.9799303720       34.4382572978  SYS             23   0.00000
       795        23  MOL       C3              6.5200110259       12.0394742711       34.2105369102  SYS             23   0.00000
       796        23  MOL       C4              5.1098113114       11.6534687372       32.2186863595  SYS             23   0.00000
       797        23  MOL       C5              4.4759499071       10.8788496929       35.8130137117  SYS             23   0.00000
       798        23  MOL       H6              3.4919585415       10.6588042156       34.0488835486  SYS             23   0.00000
       799        23  MOL       C7              6.6764403907       11.9200578624       35.6021615010  SYS             23   0.00000
       800        23  MOL       C8              7.5011637572       12.5967801591       33.3797791999  SYS             23   0.00000
       801        23  MOL       C9              6.0909640427       12.2107746252       31.3879286493  SYS             23   0.00000
       802        23  MOL       H10             4.2963071247       11.3362747802       31.8461807872  SYS             23   0.00000
       803        23  MOL       C11             3.4799397195       10.2929911182       36.6761020943  SYS             23   0.00000
       804        23  MOL       C12             5.7005166198       11.3547652866       36.4118339902  SYS             23   0.00000
       805        23  MOL       H13             7.4778076054       12.2376626081       36.0027807014  SYS             23   0.00000
       806        23  MOL       H14             8.3146679439       12.9139741161       33.7522847722  SYS             23   0.00000
       807        23  MOL       C15             7.3217820661       12.6987509867       31.9923716533  SYS             23   0.00000
       808        23  MOL       C16             5.9345346779       12.3301910339       29.9963040585  SYS             23   0.00000
       809        23  MOL       C17             3.6779121043       10.1957889207       38.0114994289  SYS             23   0.00000
       810        23  MOL       H18             2.6701390956        9.9689989177       36.3007851592  SYS             23   0.00000
       811        23  MOL       C19             5.8643277181       11.2295042966       37.8343835719  SYS             23   0.00000
       812        23  MOL       C20             8.3136962467       13.2703185243       31.1602082617  SYS             23   0.00000
       813        23  MOL       C21             6.9104584488       12.8954836097       29.1866315693  SYS             23   0.00000
       814        23  MOL       H22             5.1331674632       12.0125862881       29.5956848581  SYS             23   0.00000
       815        23  MOL       C23             4.8853636698       10.6784098566       38.5962628933  SYS             23   0.00000
       816        23  MOL       H24             3.0094781851        9.8040721216       38.5611208582  SYS             23   0.00000
       817        23  MOL       H25             6.6641433984       11.5359090355       38.2462482235  SYS             23   0.00000
       818        23  MOL       H26             9.1190165271       13.5914446807       31.5495820108  SYS             23   0.00000
       819        23  MOL       C27             8.1350251616       13.3713992034       29.7854518477  SYS             23   0.00000
       820        23  MOL       C28             6.7466473505       13.0207445996       27.7640819876  SYS             23   0.00000
       821        23  MOL       H29             5.0064996602       10.6135219146       39.5366637532  SYS             23   0.00000
       822        23  MOL       C30             9.1310353491       13.9572577780       28.9223634652  SYS             23   0.00000
       823        23  MOL       C31             7.7256113988       13.5718390396       27.0022026661  SYS             23   0.00000
       824        23  MOL       H32             5.9468316702       12.7143398608       27.3522173360  SYS             23   0.00000
       825        23  MOL       C33             8.9330629644       14.0544599756       27.5869661306  SYS             23   0.00000
       826        23  MOL       H34             9.9408359730       14.2812499786       29.2976804003  SYS             23   0.00000
       827        23  MOL       H35             7.6044754084       13.6367269817       26.0618018063  SYS             23   0.00000
       828        23  MOL       H36             9.6014968836       14.4461767746       27.0373447013  SYS             23   0.00000
       829        24  MOL       C1             15.0618604095       15.9915162949       33.7916438516  SYS             24   0.00000
       830        24  MOL       C2             14.0774972387       15.9964252115       34.8107628701  SYS             24   0.00000
       831        24  MOL       C3             16.3059572931       15.2623672232       34.0235812834  SYS             24   0.00000
       832        24  MOL       C4             14.8912753241       16.6716215848       32.5785407992  SYS             24   0.00000
       833        24  MOL       C5             14.2731317666       15.3371744203       36.0112147898  SYS             24   0.00000
       834        24  MOL       H6             13.2631968124       16.4640861658       34.6659776854  SYS             24   0.00000
       835        24  MOL       C7             16.4763894695       14.5856512592       35.2479297870  SYS             24   0.00000
       836        24  MOL       C8             17.2817183721       15.2572235247       33.0199247603  SYS             24   0.00000
       837        24  MOL       C9             15.8670364031       16.6664778863       31.5748842761  SYS             24   0.00000
       838        24  MOL       H10            14.0776233829       17.1440950913       32.4478124285  SYS             24   0.00000
       839        24  MOL       C11            13.2889012943       15.3540218158       37.0486076666  SYS             24   0.00000
       840        24  MOL       C12            15.5038113805       14.6128574924       36.2375294960  SYS             24   0.00000
       841        24  MOL       H13            17.2775838544       14.0981286519       35.3997433787  SYS             24   0.00000
       842        24  MOL       H14            18.0953703133       14.7847500182       33.1506531309  SYS             24   0.00000
       843        24  MOL       C15            17.1111332867       15.9373288146       31.8068217079  SYS             24   0.00000
       844        24  MOL       C16            15.6966042267       17.3431938503       30.3505357725  SYS             24   0.00000
       845        24  MOL       C17            13.5001012334       14.7104852878       38.2209459582  SYS             24   0.00000
       846        24  MOL       H18            12.4742004830       15.8228810102       36.9122565703  SYS             24   0.00000
       847        24  MOL       C19            15.6756256302       13.9530050525       37.4913973091  SYS             24   0.00000
       848        24  MOL       C20            18.0954964575       15.9324198980       30.7877026894  SYS             24   0.00000
       849        24  MOL       C21            16.6691823157       17.3159876171       29.3609360635  SYS             24   0.00000
       850        24  MOL       H22            14.8954098418       17.8307164576       30.1987221808  SYS             24   0.00000
       851        24  MOL       C23            14.7179587819       13.9960380420       38.4500720272  SYS             24   0.00000
       852        24  MOL       H24            12.8335974321       14.7337255143       38.8970787140  SYS             24   0.00000
       853        24  MOL       H25            16.4782432540       13.4718307165       37.6572677149  SYS             24   0.00000
       854        24  MOL       H26            18.9097968838       15.4647589437       30.9324878741  SYS             24   0.00000
       855        24  MOL       C27            17.8998619296       16.5916706893       29.5872507697  SYS             24   0.00000
       856        24  MOL       C28            16.4973680660       17.9758400570       28.1070682504  SYS             24   0.00000
       857        24  MOL       H29            14.8563722521       13.5509521517       39.2780183747  SYS             24   0.00000
       858        24  MOL       C30            18.8840924019       16.5748232937       28.5498578929  SYS             24   0.00000
       859        24  MOL       C31            17.4550349143       17.9328070675       27.1483935323  SYS             24   0.00000
       860        24  MOL       H32            15.6947504423       18.4570143930       27.9411978446  SYS             24   0.00000
       861        24  MOL       C33            18.6728924628       17.2183598217       27.3775196012  SYS             24   0.00000
       862        24  MOL       H34            19.6987932133       16.1059640993       28.6862089892  SYS             24   0.00000
       863        24  MOL       H35            17.3166214441       18.3778929578       26.3204471848  SYS             24   0.00000
       864        24  MOL       H36            19.3393962641       17.1951195952       26.7013868455  SYS             24   0.00000
       865        25  MOL       C1              7.5566392645       17.1005143469       17.9355576049  SYS             25   0.00000
       866        25  MOL       C2              8.5485534451       17.6720818845       17.1033942132  SYS             25   0.00000
       867        25  MOL       C3              6.3258212411       16.6125379854       17.3311146008  SYS             25   0.00000
       868        25  MOL       C4              7.7360209556       16.9985435193       19.3229651515  SYS             25   0.00000
       869        25  MOL       C5              8.3698823599       17.7731625636       15.7286377993  SYS             25   0.00000
       870        25  MOL       H6              9.3538737255       17.9932080409       17.4927679624  SYS             25   0.00000
       871        25  MOL       C7              6.1693918763       16.7319543941       15.9394900100  SYS             25   0.00000
       872        25  MOL       C8              5.3446685098       16.0552320974       18.1618723111  SYS             25   0.00000
       873        25  MOL       C9              6.7548682243       16.4412376313       20.1537228617  SYS             25   0.00000
       874        25  MOL       H10             8.5495251423       17.3157374763       19.6954707238  SYS             25   0.00000
       875        25  MOL       C11             9.3658925475       18.3590211383       14.8655494167  SYS             25   0.00000
       876        25  MOL       C12             7.1453156472       17.2972469699       15.1298175208  SYS             25   0.00000
       877        25  MOL       H13             5.3680246616       16.4143496484       15.5388708096  SYS             25   0.00000
       878        25  MOL       H14             4.5311643231       15.7380381404       17.7893667388  SYS             25   0.00000
       879        25  MOL       C15             5.5240502009       15.9532612698       19.5492798577  SYS             25   0.00000
       880        25  MOL       C16             6.9112975891       16.3218212226       21.5453474525  SYS             25   0.00000
       881        25  MOL       C17             9.1679201627       18.4562233358       13.5301520821  SYS             25   0.00000
       882        25  MOL       H18            10.1756931714       18.6830133388       15.2408663518  SYS             25   0.00000
       883        25  MOL       C19             6.9815045489       17.4225079599       13.7072679391  SYS             25   0.00000
       884        25  MOL       C20             4.5321360203       15.3816937322       20.3814432493  SYS             25   0.00000
       885        25  MOL       C21             5.9353738182       15.7565286468       22.3550199417  SYS             25   0.00000
       886        25  MOL       H22             7.7126648038       16.6394259683       21.9459666529  SYS             25   0.00000
       887        25  MOL       C23             7.9604685972       17.9736023999       12.9453886177  SYS             25   0.00000
       888        25  MOL       H24             9.8363540819       18.8479401349       12.9805306528  SYS             25   0.00000
       889        25  MOL       H25             6.1816888686       17.1161032210       13.2954032875  SYS             25   0.00000
       890        25  MOL       H26             3.7268157399       15.0605675758       19.9920695002  SYS             25   0.00000
       891        25  MOL       C27             4.7108071054       15.2806130531       21.7561996633  SYS             25   0.00000
       892        25  MOL       C28             6.0991849165       15.6312676568       23.7775695234  SYS             25   0.00000
       893        25  MOL       H29             7.8393326068       18.0384903419       12.0049877578  SYS             25   0.00000
       894        25  MOL       C30             3.7147969179       14.6947544784       22.6192880458  SYS             25   0.00000
       895        25  MOL       C31             5.1202208682       15.0801732168       24.5394488449  SYS             25   0.00000
       896        25  MOL       H32             6.8990005968       15.9376723957       24.1894341751  SYS             25   0.00000
       897        25  MOL       C33             3.9127693026       14.5975522809       23.9546853804  SYS             25   0.00000
       898        25  MOL       H34             2.9049962940       14.3707622779       22.2439711107  SYS             25   0.00000
       899        25  MOL       H35             5.2413568586       15.0152852748       25.4798497047  SYS             25   0.00000
       900        25  MOL       H36             3.2443353834       14.2058354818       24.5043068097  SYS             25   0.00000
       901        26  MOL       C1             14.3257417819        8.3129200817       33.7916438516  SYS             26   0.00000
       902        26  MOL       C2             13.3413786111        8.3178289982       34.8107628701  SYS             26   0.00000
       903        26  MOL       C3             15.5698386655        7.5837710100       34.0235812834  SYS             26   0.00000
       904        26  MOL       C4             14.1551566965        8.9930253716       32.5785407992  SYS             26   0.00000
       905        26  MOL       C5             13.5370131390        7.6585782070       36.0112147898  SYS             26   0.00000
       906        26  MOL       H6             12.5270781848        8.7854899526       34.6659776854  SYS             26   0.00000
       907        26  MOL       C7             15.7402708419        6.9070550460       35.2479297870  SYS             26   0.00000
       908        26  MOL       C8             16.5455997445        7.5786273114       33.0199247603  SYS             26   0.00000
       909        26  MOL       C9             15.1309177755        8.9878816730       31.5748842761  SYS             26   0.00000
       910        26  MOL       H10            13.3415047553        9.4654988780       32.4478124285  SYS             26   0.00000
       911        26  MOL       C11            12.5527826667        7.6754256025       37.0486076666  SYS             26   0.00000
       912        26  MOL       C12            14.7676927529        6.9342612792       36.2375294960  SYS             26   0.00000
       913        26  MOL       H13            16.5414652268        6.4195324387       35.3997433787  SYS             26   0.00000
       914        26  MOL       H14            17.3592516857        7.1061538050       33.1506531309  SYS             26   0.00000
       915        26  MOL       C15            16.3750146591        8.2587326014       31.8068217079  SYS             26   0.00000
       916        26  MOL       C16            14.9604855991        9.6645976371       30.3505357725  SYS             26   0.00000
       917        26  MOL       C17            12.7639826058        7.0318890746       38.2209459582  SYS             26   0.00000
       918        26  MOL       H18            11.7380818554        8.1442847969       36.9122565703  SYS             26   0.00000
       919        26  MOL       C19            14.9395070026        6.2744088392       37.4913973091  SYS             26   0.00000
       920        26  MOL       C20            17.3593778299        8.2538236848       30.7877026894  SYS             26   0.00000
       921        26  MOL       C21            15.9330636881        9.6373914038       29.3609360635  SYS             26   0.00000
       922        26  MOL       H22            14.1592912142       10.1521202444       30.1987221808  SYS             26   0.00000
       923        26  MOL       C23            13.9818401543        6.3174418288       38.4500720272  SYS             26   0.00000
       924        26  MOL       H24            12.0974788045        7.0551293011       38.8970787140  SYS             26   0.00000
       925        26  MOL       H25            15.7421246264        5.7932345032       37.6572677149  SYS             26   0.00000
       926        26  MOL       H26            18.1736782562        7.7861627304       30.9324878741  SYS             26   0.00000
       927        26  MOL       C27            17.1637433020        8.9130744760       29.5872507697  SYS             26   0.00000
       928        26  MOL       C28            15.7612494384       10.2972438438       28.1070682504  SYS             26   0.00000
       929        26  MOL       H29            14.1202536245        5.8723559385       39.2780183747  SYS             26   0.00000
       930        26  MOL       C30            18.1479737743        8.8962270805       28.5498578929  SYS             26   0.00000
       931        26  MOL       C31            16.7189162867       10.2542108542       27.1483935323  SYS             26   0.00000
       932        26  MOL       H32            14.9586318147       10.7784181798       27.9411978446  SYS             26   0.00000
       933        26  MOL       C33            17.9367738352        9.5397636084       27.3775196012  SYS             26   0.00000
       934        26  MOL       H34            18.9626745857        8.4273678861       28.6862089892  SYS             26   0.00000
       935        26  MOL       H35            16.5805028165       10.6992967445       26.3204471848  SYS             26   0.00000
       936        26  MOL       H36            18.6032776365        9.5165233819       26.7013868455  SYS             26   0.00000
       937        27  MOL       C1             17.3459904851       20.3390921748       17.7500076595  SYS             27   0.00000
       938        27  MOL       C2             18.3303536559       20.3341832582       16.7308886409  SYS             27   0.00000
       939        27  MOL       C3             16.1018936015       21.0682412465       17.5180702277  SYS             27   0.00000
       940        27  MOL       C4             17.5165755705       19.6589868849       18.9631107118  SYS             27   0.00000
       941        27  MOL       C5             18.1347191280       20.9934340495       15.5304367212  SYS             27   0.00000
       942        27  MOL       H6             19.1446540822       19.8665223039       16.8756738256  SYS             27   0.00000
       943        27  MOL       C7             15.9314614251       21.7449572105       16.2937217240  SYS             27   0.00000
       944        27  MOL       C8             15.1261325225       21.0733849450       18.5217267507  SYS             27   0.00000
       945        27  MOL       C9             16.5408144915       19.6641305834       19.9667672349  SYS             27   0.00000
       946        27  MOL       H10            18.3302275117       19.1865133785       19.0938390825  SYS             27   0.00000
       947        27  MOL       C11            19.1189496003       20.9765866540       14.4930438444  SYS             27   0.00000
       948        27  MOL       C12            16.9040395141       21.7177509773       15.3041220150  SYS             27   0.00000
       949        27  MOL       H13            15.1302670402       22.2324798178       16.1419081323  SYS             27   0.00000
       950        27  MOL       H14            14.3124805813       21.5458584515       18.3909983801  SYS             27   0.00000
       951        27  MOL       C15            15.2967176079       20.3932796551       19.7348298031  SYS             27   0.00000
       952        27  MOL       C16            16.7112466679       18.9874146194       21.1911157385  SYS             27   0.00000
       953        27  MOL       C17            18.9077496612       21.6201231819       13.3207055528  SYS             27   0.00000
       954        27  MOL       H18            19.9336504116       20.5077274595       14.6293949407  SYS             27   0.00000
       955        27  MOL       C19            16.7322252644       22.3776034173       14.0502542019  SYS             27   0.00000
       956        27  MOL       C20            14.3123544371       20.3981885717       20.7539488216  SYS             27   0.00000
       957        27  MOL       C21            15.7386685789       19.0146208526       22.1807154475  SYS             27   0.00000
       958        27  MOL       H22            17.5124410528       18.4998920121       21.3429293302  SYS             27   0.00000
       959        27  MOL       C23            17.6898921127       22.3345704277       13.0915794838  SYS             27   0.00000
       960        27  MOL       H24            19.5742534625       21.5968829554       12.6445727971  SYS             27   0.00000
       961        27  MOL       H25            15.9296076406       22.8587777532       13.8843837961  SYS             27   0.00000
       962        27  MOL       H26            13.4980540108       20.8658495260       20.6091636369  SYS             27   0.00000
       963        27  MOL       C27            14.5079889650       19.7389377805       21.9544007413  SYS             27   0.00000
       964        27  MOL       C28            15.9104828286       18.3547684127       23.4345832606  SYS             27   0.00000
       965        27  MOL       H29            17.5514786425       22.7796563180       12.2636331363  SYS             27   0.00000
       966        27  MOL       C30            13.5237584927       19.7557851760       22.9917936181  SYS             27   0.00000
       967        27  MOL       C31            14.9528159803       18.3978014022       24.3932579788  SYS             27   0.00000
       968        27  MOL       H32            16.7131004523       17.8735940767       23.6004536664  SYS             27   0.00000
       969        27  MOL       C33            13.7349584317       19.1122486481       24.1641319098  SYS             27   0.00000
       970        27  MOL       H34            12.7090576813       20.2246443704       22.8554425219  SYS             27   0.00000
       971        27  MOL       H35            15.0912294505       17.9527155120       25.2212043262  SYS             27   0.00000
       972        27  MOL       H36            13.0684546305       19.1354888746       24.8402646655  SYS             27   0.00000
       973        28  MOL       C1             15.7979790371       23.6701125082       33.7916438516  SYS             28   0.00000
       974        28  MOL       C2             14.8136158663       23.6750214247       34.8107628701  SYS             28   0.00000
       975        28  MOL       C3             17.0420759207       22.9409634365       34.0235812834  SYS             28   0.00000
       976        28  MOL       C4             15.6273939517       24.3502177981       32.5785407992  SYS             28   0.00000
       977        28  MOL       C5             15.0092503942       23.0157706335       36.0112147898  SYS             28   0.00000
       978        28  MOL       H6             13.9993154400       24.1426823791       34.6659776854  SYS             28   0.00000
       979        28  MOL       C7             17.2125080971       22.2642474725       35.2479297870  SYS             28   0.00000
       980        28  MOL       C8             18.0178369997       22.9358197379       33.0199247603  SYS             28   0.00000
       981        28  MOL       C9             16.6031550307       24.3450740995       31.5748842761  SYS             28   0.00000
       982        28  MOL       H10            14.8137420105       24.8226913045       32.4478124285  SYS             28   0.00000
       983        28  MOL       C11            14.0250199219       23.0326180290       37.0486076666  SYS             28   0.00000
       984        28  MOL       C12            16.2399300081       22.2914537057       36.2375294960  SYS             28   0.00000
       985        28  MOL       H13            18.0137024820       21.7767248651       35.3997433787  SYS             28   0.00000
       986        28  MOL       H14            18.8314889409       22.4633462315       33.1506531309  SYS             28   0.00000
       987        28  MOL       C15            17.8472519143       23.6159250278       31.8068217079  SYS             28   0.00000
       988        28  MOL       C16            16.4327228543       25.0217900635       30.3505357725  SYS             28   0.00000
       989        28  MOL       C17            14.2362198610       22.3890815011       38.2209459582  SYS             28   0.00000
       990        28  MOL       H18            13.2103191106       23.5014772234       36.9122565703  SYS             28   0.00000
       991        28  MOL       C19            16.4117442578       21.6316012657       37.4913973091  SYS             28   0.00000
       992        28  MOL       C20            18.8316150851       23.6110161113       30.7877026894  SYS             28   0.00000
       993        28  MOL       C21            17.4053009433       24.9945838303       29.3609360635  SYS             28   0.00000
       994        28  MOL       H22            15.6315284694       25.5093126709       30.1987221808  SYS             28   0.00000
       995        28  MOL       C23            15.4540774095       21.6746342553       38.4500720272  SYS             28   0.00000
       996        28  MOL       H24            13.5697160597       22.4123217276       38.8970787140  SYS             28   0.00000
       997        28  MOL       H25            17.2143618816       21.1504269297       37.6572677149  SYS             28   0.00000
       998        28  MOL       H26            19.6459155114       23.1433551569       30.9324878741  SYS             28   0.00000
       999        28  MOL       C27            18.6359805572       24.2702669025       29.5872507697  SYS             28   0.00000
      1000        28  MOL       C28            17.2334866936       25.6544362703       28.1070682504  SYS             28   0.00000
      1001        28  MOL       H29            15.5924908797       21.2295483650       39.2780183747  SYS             28   0.00000
      1002        28  MOL       C30            19.6202110295       24.2534195070       28.5498578929  SYS             28   0.00000
      1003        28  MOL       C31            18.1911535419       25.6114032807       27.1483935323  SYS             28   0.00000
      1004        28  MOL       H32            16.4308690699       26.1356106063       27.9411978446  SYS             28   0.00000
      1005        28  MOL       C33            19.4090110905       24.8969560349       27.3775196012  SYS             28   0.00000
      1006        28  MOL       H34            20.4349118409       23.7845603126       28.6862089892  SYS             28   0.00000
      1007        28  MOL       H35            18.0527400717       26.0564891710       26.3204471848  SYS             28   0.00000
      1008        28  MOL       H36            20.0755148917       24.8737158084       26.7013868455  SYS             28   0.00000
      1009        29  MOL       C1             14.5605989803       12.7146834419       19.7348298031  SYS             29   0.00000
      1010        29  MOL       C2             13.5762358095       12.7195923585       20.7539488216  SYS             29   0.00000
      1011        29  MOL       C3             15.8046958639       11.9855343702       19.9667672349  SYS             29   0.00000
      1012        29  MOL       C4             14.3900138948       13.3947887318       18.5217267507  SYS             29   0.00000
      1013        29  MOL       C5             13.7718703374       12.0603415672       21.9544007413  SYS             29   0.00000
      1014        29  MOL       H6             12.7619353832       13.1872533128       20.6091636369  SYS             29   0.00000
      1015        29  MOL       C7             15.9751280403       11.3088184062       21.1911157385  SYS             29   0.00000
      1016        29  MOL       C8             16.7804569429       11.9803906716       18.9631107118  SYS             29   0.00000
      1017        29  MOL       C9             15.3657749739       13.3896450332       17.5180702277  SYS             29   0.00000
      1018        29  MOL       H10            13.5763619537       13.8672622382       18.3909983801  SYS             29   0.00000
      1019        29  MOL       C11            12.7876398651       12.0771889627       22.9917936181  SYS             29   0.00000
      1020        29  MOL       C12            15.0025499513       11.3360246394       22.1807154475  SYS             29   0.00000
      1021        29  MOL       H13            16.7763224252       10.8212957989       21.3429293302  SYS             29   0.00000
      1022        29  MOL       H14            17.5941088841       11.5079171652       19.0938390825  SYS             29   0.00000
      1023        29  MOL       C15            16.6098718575       12.6604959616       17.7500076595  SYS             29   0.00000
      1024        29  MOL       C16            15.1953427975       14.0663609973       16.2937217240  SYS             29   0.00000
      1025        29  MOL       C17            12.9988398041       11.4336524348       24.1641319098  SYS             29   0.00000
      1026        29  MOL       H18            11.9729390537       12.5460481572       22.8554425219  SYS             29   0.00000
      1027        29  MOL       C19            15.1743642010       10.6761721994       23.4345832606  SYS             29   0.00000
      1028        29  MOL       C20            17.5942350283       12.6555870450       16.7308886409  SYS             29   0.00000
      1029        29  MOL       C21            16.1679208865       14.0391547641       15.3041220150  SYS             29   0.00000
      1030        29  MOL       H22            14.3941484126       14.5538836046       16.1419081323  SYS             29   0.00000
      1031        29  MOL       C23            14.2166973527       10.7192051890       24.3932579788  SYS             29   0.00000
      1032        29  MOL       H24            12.3323360029       11.4568926613       24.8402646655  SYS             29   0.00000
      1033        29  MOL       H25            15.9769818247       10.1949978635       23.6004536664  SYS             29   0.00000
      1034        29  MOL       H26            18.4085354546       12.1879260907       16.8756738256  SYS             29   0.00000
      1035        29  MOL       C27            17.3986005004       13.3148378362       15.5304367212  SYS             29   0.00000
      1036        29  MOL       C28            15.9961066368       14.6990072040       14.0502542019  SYS             29   0.00000
      1037        29  MOL       H29            14.3551108229       10.2741192987       25.2212043262  SYS             29   0.00000
      1038        29  MOL       C30            18.3828309727       13.2979904407       14.4930438444  SYS             29   0.00000
      1039        29  MOL       C31            16.9537734851       14.6559742145       13.0915794838  SYS             29   0.00000
      1040        29  MOL       H32            15.1934890130       15.1801815400       13.8843837961  SYS             29   0.00000
      1041        29  MOL       C33            18.1716310336       13.9415269686       13.3207055528  SYS             29   0.00000
      1042        29  MOL       H34            19.1975317840       12.8291312463       14.6293949407  SYS             29   0.00000
      1043        29  MOL       H35            16.8153600149       15.1010601047       12.2636331363  SYS             29   0.00000
      1044        29  MOL       H36            18.8381348349       13.9182867421       12.6445727971  SYS             29   0.00000
      1045        30  MOL       C1             14.0593375511        9.4378505888        5.6780157546  SYS             30   0.00000
      1046        30  MOL       C2             13.0749743803        9.4427595054        6.6971347732  SYS             30   0.00000
      1047        30  MOL       C3             15.3034344346        8.7087015172        5.9099531864  SYS             30   0.00000
      1048        30  MOL       C4             13.8887524656       10.1179558788        4.4649127023  SYS             30   0.00000
      1049        30  MOL       C5             13.2706089082        8.7835087142        7.8975866929  SYS             30   0.00000
      1050        30  MOL       H6             12.2606739539        9.9104204598        6.5523495885  SYS             30   0.00000
      1051        30  MOL       C7             15.4738666111        8.0319855531        7.1343016901  SYS             30   0.00000
      1052        30  MOL       C8             16.2791955137        8.7035578186        4.9062966634  SYS             30   0.00000
      1053        30  MOL       C9             14.8645135447       10.1128121802        3.4612561792  SYS             30   0.00000
      1054        30  MOL       H10            13.0751005244       10.5904293852        4.3341843316  SYS             30   0.00000
      1055        30  MOL       C11            12.2863784358        8.8003561097        8.9349795697  SYS             30   0.00000
      1056        30  MOL       C12            14.5012885221        8.0591917864        8.1239013991  SYS             30   0.00000
      1057        30  MOL       H13            16.2750609960        7.5444629458        7.2861152818  SYS             30   0.00000
      1058        30  MOL       H14            17.0928474549        8.2310843122        5.0370250340  SYS             30   0.00000
      1059        30  MOL       C15            16.1086104282        9.3836631085        3.6931936110  SYS             30   0.00000
      1060        30  MOL       C16            14.6940813682       10.7895281442        2.2369076756  SYS             30   0.00000
      1061        30  MOL       C17            12.4975783749        8.1568195818       10.1073178613  SYS             30   0.00000
      1062        30  MOL       H18            11.4716776245        9.2692153041        8.7986284734  SYS             30   0.00000
      1063        30  MOL       C19            14.6731027717        7.3993393464        9.3777692122  SYS             30   0.00000
      1064        30  MOL       C20            17.0929735990        9.3787541920        2.6740745925  SYS             30   0.00000
      1065        30  MOL       C21            15.6666594572       10.7623219110        1.2473079666  SYS             30   0.00000
      1066        30  MOL       H22            13.8928869833       11.2770507515        2.0850940839  SYS             30   0.00000
      1067        30  MOL       C23            13.7154359234        7.4423723360       10.3364439303  SYS             30   0.00000
      1068        30  MOL       H24            11.8310745737        8.1800598083       10.7834506170  SYS             30   0.00000
      1069        30  MOL       H25            15.4757203955        6.9181650104        9.5436396180  SYS             30   0.00000
      1070        30  MOL       H26            17.9072740254        8.9110932376        2.8188597772  SYS             30   0.00000
      1071        30  MOL       C27            16.8973390711       10.0380049832        1.4736226727  SYS             30   0.00000
      1072        30  MOL       C28            15.4948452076       11.4221743510       -0.0065598466  SYS             30   0.00000
      1073        30  MOL       H29            13.8538493937        6.9972864457       11.1643902778  SYS             30   0.00000
      1074        30  MOL       C30            17.8815695434       10.0211575877        0.4362297960  SYS             30   0.00000
      1075        30  MOL       C31            16.4525120558       11.3791413614       -0.9652345647  SYS             30   0.00000
      1076        30  MOL       H32            14.6922275838       11.9033486870       -0.1724302523  SYS             30   0.00000
      1077        30  MOL       C33            17.6703696044       10.6646941156       -0.7361084957  SYS             30   0.00000
      1078        30  MOL       H34            18.6962703548        9.5522983933        0.5725808922  SYS             30   0.00000
      1079        30  MOL       H35            16.3140985856       11.8242272517       -1.7931809121  SYS             30   0.00000
      1080        30  MOL       H36            18.3368734056       10.6414538891       -1.4122412514  SYS             30   0.00000
      1081        31  MOL       C1             13.3232189235        1.7592543756        5.6780157546  SYS             31   0.00000
      1082        31  MOL       C2             12.3388557527        1.7641632922        6.6971347732  SYS             31   0.00000
      1083        31  MOL       C3             14.5673158070        1.0301053039        5.9099531864  SYS             31   0.00000
      1084        31  MOL       C4             13.1526338380        2.4393596655        4.4649127023  SYS             31   0.00000
      1085        31  MOL       C5             12.5344902806        1.1049125010        7.8975866929  SYS             31   0.00000
      1086        31  MOL       H6             11.5245553263        2.2318242465        6.5523495885  SYS             31   0.00000
      1087        31  MOL       C7             14.7377479835        0.3533893399        7.1343016901  SYS             31   0.00000
      1088        31  MOL       C8             15.5430768861        1.0249616054        4.9062966634  SYS             31   0.00000
      1089        31  MOL       C9             14.1283949171        2.4342159670        3.4612561792  SYS             31   0.00000
      1090        31  MOL       H10            12.3389818968        2.9118331720        4.3341843316  SYS             31   0.00000
      1091        31  MOL       C11            11.5502598082        1.1217598965        8.9349795697  SYS             31   0.00000
      1092        31  MOL       C12            13.7651698945        0.3805955731        8.1239013991  SYS             31   0.00000
      1093        31  MOL       H13            15.5389423684       -0.1341332674        7.2861152818  SYS             31   0.00000
      1094        31  MOL       H14            16.3567288273        0.5524880989        5.0370250340  SYS             31   0.00000
      1095        31  MOL       C15            15.3724918006        1.7050668953        3.6931936110  SYS             31   0.00000
      1096        31  MOL       C16            13.9579627406        3.1109319310        2.2369076756  SYS             31   0.00000
      1097        31  MOL       C17            11.7614597473        0.4782233685       10.1073178613  SYS             31   0.00000
      1098        31  MOL       H18            10.7355589969        1.5906190909        8.7986284734  SYS             31   0.00000
      1099        31  MOL       C19            13.9369841441       -0.2792568668        9.3777692122  SYS             31   0.00000
      1100        31  MOL       C20            16.3568549714        1.7001579787        2.6740745925  SYS             31   0.00000
      1101        31  MOL       C21            14.9305408296        3.0837256978        1.2473079666  SYS             31   0.00000
      1102        31  MOL       H22            13.1567683557        3.5984545383        2.0850940839  SYS             31   0.00000
      1103        31  MOL       C23            12.9793172958       -0.2362238773       10.3364439303  SYS             31   0.00000
      1104        31  MOL       H24            11.0949559461        0.5014635950       10.7834506170  SYS             31   0.00000
      1105        31  MOL       H25            14.7396017679       -0.7604312028        9.5436396180  SYS             31   0.00000
      1106        31  MOL       H26            17.1711553978        1.2324970244        2.8188597772  SYS             31   0.00000
      1107        31  MOL       C27            16.1612204435        2.3594087699        1.4736226727  SYS             31   0.00000
      1108        31  MOL       C28            14.7587265800        3.7435781377       -0.0065598466  SYS             31   0.00000
      1109        31  MOL       H29            13.1177307661       -0.6813097676       11.1643902778  SYS             31   0.00000
      1110        31  MOL       C30            17.1454509158        2.3425613744        0.4362297960  SYS             31   0.00000
      1111        31  MOL       C31            15.7163934282        3.7005451482       -0.9652345647  SYS             31   0.00000
      1112        31  MOL       H32            13.9561089562        4.2247524737       -0.1724302523  SYS             31   0.00000
      1113        31  MOL       C33            16.9342509768        2.9860979024       -0.7361084957  SYS             31   0.00000
      1114        31  MOL       H34            17.9601517272        1.8737021800        0.5725808922  SYS             31   0.00000
      1115        31  MOL       H35            15.5779799580        4.1456310385       -1.7931809121  SYS             31   0.00000
      1116        31  MOL       H36            17.6007547780        2.9628576759       -1.4122412514  SYS             31   0.00000
      1117        32  MOL       C1              6.0253116301       19.2300941228       33.6060939061  SYS             32   0.00000
      1118        32  MOL       C2              5.0333974495       18.6585265852       34.4382572978  SYS             32   0.00000
      1119        32  MOL       C3              7.2561296535       19.7180704843       34.2105369102  SYS             32   0.00000
      1120        32  MOL       C4              5.8459299390       19.3320649504       32.2186863595  SYS             32   0.00000
      1121        32  MOL       C5              5.2120685347       18.5574459061       35.8130137117  SYS             32   0.00000
      1122        32  MOL       H6              4.2280771691       18.3374004288       34.0488835486  SYS             32   0.00000
      1123        32  MOL       C7              7.4125590183       19.5986540756       35.6021615010  SYS             32   0.00000
      1124        32  MOL       C8              8.2372823848       20.2753763723       33.3797791999  SYS             32   0.00000
      1125        32  MOL       C9              6.8270826703       19.8893708384       31.3879286493  SYS             32   0.00000
      1126        32  MOL       H10             5.0324257523       19.0148709934       31.8461807872  SYS             32   0.00000
      1127        32  MOL       C11             4.2160583471       17.9715873315       36.6761020943  SYS             32   0.00000
      1128        32  MOL       C12             6.4366352474       19.0333614998       36.4118339902  SYS             32   0.00000
      1129        32  MOL       H13             8.2139262330       19.9162588214       36.0027807014  SYS             32   0.00000
      1130        32  MOL       H14             9.0507865715       20.5925703294       33.7522847722  SYS             32   0.00000
      1131        32  MOL       C15             8.0579006937       20.3773472000       31.9923716533  SYS             32   0.00000
      1132        32  MOL       C16             6.6706533055       20.0087872471       29.9963040585  SYS             32   0.00000
      1133        32  MOL       C17             4.4140307319       17.8743851340       38.0114994289  SYS             32   0.00000
      1134        32  MOL       H18             3.4062577232       17.6475951309       36.3007851592  SYS             32   0.00000
      1135        32  MOL       C19             6.6004463457       18.9081005099       37.8343835719  SYS             32   0.00000
      1136        32  MOL       C20             9.0498148743       20.9489147375       31.1602082617  SYS             32   0.00000
      1137        32  MOL       C21             7.6465770764       20.5740798229       29.1866315693  SYS             32   0.00000
      1138        32  MOL       H22             5.8692860908       19.6911825014       29.5956848581  SYS             32   0.00000
      1139        32  MOL       C23             5.6214822974       18.3570060699       38.5962628933  SYS             32   0.00000
      1140        32  MOL       H24             3.7455968127       17.4826683349       38.5611208582  SYS             32   0.00000
      1141        32  MOL       H25             7.4002620260       19.2145052487       38.2462482235  SYS             32   0.00000
      1142        32  MOL       H26             9.8551351547       21.2700408940       31.5495820108  SYS             32   0.00000
      1143        32  MOL       C27             8.8711437892       21.0499954166       29.7854518477  SYS             32   0.00000
      1144        32  MOL       C28             7.4827659781       20.6993408129       27.7640819876  SYS             32   0.00000
      1145        32  MOL       H29             5.7426182878       18.2921181278       39.5366637532  SYS             32   0.00000
      1146        32  MOL       C30             9.8671539767       21.6358539913       28.9223634652  SYS             32   0.00000
      1147        32  MOL       C31             8.4617300264       21.2504352529       27.0022026661  SYS             32   0.00000
      1148        32  MOL       H32             6.6829502978       20.3929360741       27.3522173360  SYS             32   0.00000
      1149        32  MOL       C33             9.6691815920       21.7330561888       27.5869661306  SYS             32   0.00000
      1150        32  MOL       H34            10.6769546006       21.9598461918       29.2976804003  SYS             32   0.00000
      1151        32  MOL       H35             8.3405940360       21.3153231949       26.0618018063  SYS             32   0.00000
      1152        32  MOL       H36            10.3376155112       22.1247729879       27.0373447013  SYS             32   0.00000
      1153        33  MOL       C1             15.8737532299        4.9818997483       17.7500076595  SYS             33   0.00000
      1154        33  MOL       C2             16.8581164007        4.9769908317       16.7308886409  SYS             33   0.00000
      1155        33  MOL       C3             14.6296563463        5.7110488200       17.5180702277  SYS             33   0.00000
      1156        33  MOL       C4             16.0443383153        4.3017944584       18.9631107118  SYS             33   0.00000
      1157        33  MOL       C5             16.6624818728        5.6362416230       15.5304367212  SYS             33   0.00000
      1158        33  MOL       H6             17.6724168270        4.5093298774       16.8756738256  SYS             33   0.00000
      1159        33  MOL       C7             14.4592241699        6.3877647840       16.2937217240  SYS             33   0.00000
      1160        33  MOL       C8             13.6538952672        5.7161925186       18.5217267507  SYS             33   0.00000
      1161        33  MOL       C9             15.0685772363        4.3069381570       19.9667672349  SYS             33   0.00000
      1162        33  MOL       H10            16.8579902565        3.8293209520       19.0938390825  SYS             33   0.00000
      1163        33  MOL       C11            17.6467123451        5.6193942275       14.4930438444  SYS             33   0.00000
      1164        33  MOL       C12            15.4318022589        6.3605585508       15.3041220150  SYS             33   0.00000
      1165        33  MOL       H13            13.6580297850        6.8752873913       16.1419081323  SYS             33   0.00000
      1166        33  MOL       H14            12.8402433261        6.1886660250       18.3909983801  SYS             33   0.00000
      1167        33  MOL       C15            13.8244803527        5.0360872286       19.7348298031  SYS             33   0.00000
      1168        33  MOL       C16            15.2390094127        3.6302221929       21.1911157385  SYS             33   0.00000
      1169        33  MOL       C17            17.4355124060        6.2629307554       13.3207055528  SYS             33   0.00000
      1170        33  MOL       H18            18.4614131564        5.1505350330       14.6293949407  SYS             33   0.00000
      1171        33  MOL       C19            15.2599880092        7.0204109908       14.0502542019  SYS             33   0.00000
      1172        33  MOL       C20            12.8401171819        5.0409961452       20.7539488216  SYS             33   0.00000
      1173        33  MOL       C21            14.2664313237        3.6574284261       22.1807154475  SYS             33   0.00000
      1174        33  MOL       H22            16.0402037976        3.1426995856       21.3429293302  SYS             33   0.00000
      1175        33  MOL       C23            16.2176548575        6.9773780012       13.0915794838  SYS             33   0.00000
      1176        33  MOL       H24            18.1020162073        6.2396905289       12.6445727971  SYS             33   0.00000
      1177        33  MOL       H25            14.4573703854        7.5015853267       13.8843837961  SYS             33   0.00000
      1178        33  MOL       H26            12.0258167556        5.5086570996       20.6091636369  SYS             33   0.00000
      1179        33  MOL       C27            13.0357517098        4.3817453540       21.9544007413  SYS             33   0.00000
      1180        33  MOL       C28            14.4382455734        2.9975759862       23.4345832606  SYS             33   0.00000
      1181        33  MOL       H29            16.0792413872        7.4224638915       12.2636331363  SYS             33   0.00000
      1182        33  MOL       C30            12.0515212375        4.3985927495       22.9917936181  SYS             33   0.00000
      1183        33  MOL       C31            13.4805787251        3.0406089757       24.3932579788  SYS             33   0.00000
      1184        33  MOL       H32            15.2408631971        2.5164016502       23.6004536664  SYS             33   0.00000
      1185        33  MOL       C33            12.2627211765        3.7550562216       24.1641319098  SYS             33   0.00000
      1186        33  MOL       H34            11.2368204261        4.8674519439       22.8554425219  SYS             33   0.00000
      1187        33  MOL       H35            13.6189921953        2.5955230855       25.2212043262  SYS             33   0.00000
      1188        33  MOL       H36            11.5962173753        3.7782964481       24.8402646655  SYS             33   0.00000
      1189        34  MOL       C1             14.7954561787       17.1164468021        5.6780157546  SYS             34   0.00000
      1190        34  MOL       C2             13.8110930079       17.1213557187        6.6971347732  SYS             34   0.00000
      1191        34  MOL       C3             16.0395530622       16.3872977304        5.9099531864  SYS             34   0.00000
      1192        34  MOL       C4             14.6248710932       17.7965520920        4.4649127023  SYS             34   0.00000
      1193        34  MOL       C5             14.0067275358       16.4621049274        7.8975866929  SYS             34   0.00000
      1194        34  MOL       H6             12.9967925815       17.5890166730        6.5523495885  SYS             34   0.00000
      1195        34  MOL       C7             16.2099852387       15.7105817664        7.1343016901  SYS             34   0.00000
      1196        34  MOL       C8             17.0153141413       16.3821540319        4.9062966634  SYS             34   0.00000
      1197        34  MOL       C9             15.6006321723       17.7914083935        3.4612561792  SYS             34   0.00000
      1198        34  MOL       H10            13.8112191520       18.2690255985        4.3341843316  SYS             34   0.00000
      1199        34  MOL       C11            13.0224970635       16.4789523230        8.9349795697  SYS             34   0.00000
      1200        34  MOL       C12            15.2374071497       15.7377879996        8.1239013991  SYS             34   0.00000
      1201        34  MOL       H13            17.0111796236       15.2230591591        7.2861152818  SYS             34   0.00000
      1202        34  MOL       H14            17.8289660825       15.9096805254        5.0370250340  SYS             34   0.00000
      1203        34  MOL       C15            16.8447290558       17.0622593218        3.6931936110  SYS             34   0.00000
      1204        34  MOL       C16            15.4301999958       18.4681243575        2.2369076756  SYS             34   0.00000
      1205        34  MOL       C17            13.2336970025       15.8354157950       10.1073178613  SYS             34   0.00000
      1206        34  MOL       H18            12.2077962521       16.9478115174        8.7986284734  SYS             34   0.00000
      1207        34  MOL       C19            15.4092213993       15.0779355596        9.3777692122  SYS             34   0.00000
      1208        34  MOL       C20            17.8290922266       17.0573504052        2.6740745925  SYS             34   0.00000
      1209        34  MOL       C21            16.4027780848       18.4409181243        1.2473079666  SYS             34   0.00000
      1210        34  MOL       H22            14.6290056109       18.9556469648        2.0850940839  SYS             34   0.00000
      1211        34  MOL       C23            14.4515545511       15.1209685492       10.3364439303  SYS             34   0.00000
      1212        34  MOL       H24            12.5671932013       15.8586560215       10.7834506170  SYS             34   0.00000
      1213        34  MOL       H25            16.2118390231       14.5967612237        9.5436396180  SYS             34   0.00000
      1214        34  MOL       H26            18.6433926530       16.5896894509        2.8188597772  SYS             34   0.00000
      1215        34  MOL       C27            17.6334576987       17.7166011964        1.4736226727  SYS             34   0.00000
      1216        34  MOL       C28            16.2309638352       19.1007705642       -0.0065598466  SYS             34   0.00000
      1217        34  MOL       H29            14.5899680213       14.6758826589       11.1643902778  SYS             34   0.00000
      1218        34  MOL       C30            18.6176881711       17.6997538009        0.4362297960  SYS             34   0.00000
      1219        34  MOL       C31            17.1886306835       19.0577375747       -0.9652345647  SYS             34   0.00000
      1220        34  MOL       H32            15.4283462114       19.5819449002       -0.1724302523  SYS             34   0.00000
      1221        34  MOL       C33            18.4064882320       18.3432903289       -0.7361084957  SYS             34   0.00000
      1222        34  MOL       H34            19.4323889824       17.2308946065        0.5725808922  SYS             34   0.00000
      1223        34  MOL       H35            17.0502172132       19.5028234649       -1.7931809121  SYS             34   0.00000
      1224        34  MOL       H36            19.0729920332       18.3200501024       -1.4122412514  SYS             34   0.00000
      1225        35  MOL       C1              8.2927578921       24.7791105602       17.9355576049  SYS             35   0.00000
      1226        35  MOL       C2              9.2846720727       25.3506780977       17.1033942132  SYS             35   0.00000
      1227        35  MOL       C3              7.0619398687       24.2911341987       17.3311146008  SYS             35   0.00000
      1228        35  MOL       C4              8.4721395832       24.6771397326       19.3229651515  SYS             35   0.00000
      1229        35  MOL       C5              9.1060009875       25.4517587768       15.7286377993  SYS             35   0.00000
      1230        35  MOL       H6             10.0899923531       25.6718042542       17.4927679624  SYS             35   0.00000
      1231        35  MOL       C7              6.9055105039       24.4105506073       15.9394900100  SYS             35   0.00000
      1232        35  MOL       C8              6.0807871374       23.7338283106       18.1618723111  SYS             35   0.00000
      1233        35  MOL       C9              7.4909868519       24.1198338445       20.1537228617  SYS             35   0.00000
      1234        35  MOL       H10             9.2856437699       24.9943336896       19.6954707238  SYS             35   0.00000
      1235        35  MOL       C11            10.1020111751       26.0376173515       14.8655494167  SYS             35   0.00000
      1236        35  MOL       C12             7.8814342748       24.9758431831       15.1298175208  SYS             35   0.00000
      1237        35  MOL       H13             6.1041432892       24.0929458616       15.5388708096  SYS             35   0.00000
      1238        35  MOL       H14             5.2672829507       23.4166343536       17.7893667388  SYS             35   0.00000
      1239        35  MOL       C15             6.2601688285       23.6318574830       19.5492798577  SYS             35   0.00000
      1240        35  MOL       C16             7.6474162167       24.0004174358       21.5453474525  SYS             35   0.00000
      1241        35  MOL       C17             9.9040387903       26.1348195490       13.5301520821  SYS             35   0.00000
      1242        35  MOL       H18            10.9118117990       26.3616095521       15.2408663518  SYS             35   0.00000
      1243        35  MOL       C19             7.7176231765       25.1011041731       13.7072679391  SYS             35   0.00000
      1244        35  MOL       C20             5.2682546479       23.0602899454       20.3814432493  SYS             35   0.00000
      1245        35  MOL       C21             6.6714924458       23.4351248600       22.3550199417  SYS             35   0.00000
      1246        35  MOL       H22             8.4487834314       24.3180221816       21.9459666529  SYS             35   0.00000
      1247        35  MOL       C23             8.6965872248       25.6521986131       12.9453886177  SYS             35   0.00000
      1248        35  MOL       H24            10.5724727095       26.5265363481       12.9805306528  SYS             35   0.00000
      1249        35  MOL       H25             6.9178074962       24.7946994343       13.2954032875  SYS             35   0.00000
      1250        35  MOL       H26             4.4629343675       22.7391637890       19.9920695002  SYS             35   0.00000
      1251        35  MOL       C27             5.4469257330       22.9592092664       21.7561996633  SYS             35   0.00000
      1252        35  MOL       C28             6.8353035441       23.3098638701       23.7775695234  SYS             35   0.00000
      1253        35  MOL       H29             8.5754512344       25.7170865551       12.0049877578  SYS             35   0.00000
      1254        35  MOL       C30             4.4509155455       22.3733506917       22.6192880458  SYS             35   0.00000
      1255        35  MOL       C31             5.8563394958       22.7587694301       24.5394488449  SYS             35   0.00000
      1256        35  MOL       H32             7.6351192244       23.6162686089       24.1894341751  SYS             35   0.00000
      1257        35  MOL       C33             4.6488879302       22.2761484942       23.9546853804  SYS             35   0.00000
      1258        35  MOL       H34             3.6411149216       22.0493584911       22.2439711107  SYS             35   0.00000
      1259        35  MOL       H35             5.9774754862       22.6938814881       25.4798497047  SYS             35   0.00000
      1260        35  MOL       H36             3.9804540110       21.8844316951       24.5043068097  SYS             35   0.00000
      1261        36  MOL       C1              6.7614302577       26.9086903360       33.6060939061  SYS             36   0.00000
      1262        36  MOL       C2              5.7695160771       26.3371227985       34.4382572978  SYS             36   0.00000
      1263        36  MOL       C3              7.9922482811       27.3966666976       34.2105369102  SYS             36   0.00000
      1264        36  MOL       C4              6.5820485666       27.0106611637       32.2186863595  SYS             36   0.00000
      1265        36  MOL       C5              5.9481871623       26.2360421194       35.8130137117  SYS             36   0.00000
      1266        36  MOL       H6              4.9641957967       26.0159966420       34.0488835486  SYS             36   0.00000
      1267        36  MOL       C7              8.1486776459       27.2772502889       35.6021615010  SYS             36   0.00000
      1268        36  MOL       C8              8.9734010124       27.9539725856       33.3797791999  SYS             36   0.00000
      1269        36  MOL       C9              7.5632012979       27.5679670517       31.3879286493  SYS             36   0.00000
      1270        36  MOL       H10             5.7685443799       26.6934672067       31.8461807872  SYS             36   0.00000
      1271        36  MOL       C11             4.9521769747       25.6501835447       36.6761020943  SYS             36   0.00000
      1272        36  MOL       C12             7.1727538750       26.7119577131       36.4118339902  SYS             36   0.00000
      1273        36  MOL       H13             8.9500448606       27.5948550346       36.0027807014  SYS             36   0.00000
      1274        36  MOL       H14             9.7869051991       28.2711665426       33.7522847722  SYS             36   0.00000
      1275        36  MOL       C15             8.7940193213       28.0559434132       31.9923716533  SYS             36   0.00000
      1276        36  MOL       C16             7.4067719331       27.6873834604       29.9963040585  SYS             36   0.00000
      1277        36  MOL       C17             5.1501493595       25.5529813472       38.0114994289  SYS             36   0.00000
      1278        36  MOL       H18             4.1423763508       25.3261913442       36.3007851592  SYS             36   0.00000
      1279        36  MOL       C19             7.3365649733       26.5866967231       37.8343835719  SYS             36   0.00000
      1280        36  MOL       C20             9.7859335019       28.6275109508       31.1602082617  SYS             36   0.00000
      1281        36  MOL       C21             8.3826957040       28.2526760362       29.1866315693  SYS             36   0.00000
      1282        36  MOL       H22             6.6054047184       27.3697787146       29.5956848581  SYS             36   0.00000
      1283        36  MOL       C23             6.3576009250       26.0356022831       38.5962628933  SYS             36   0.00000
      1284        36  MOL       H24             4.4817154403       25.1612645481       38.5611208582  SYS             36   0.00000
      1285        36  MOL       H25             8.1363806536       26.8931014619       38.2462482235  SYS             36   0.00000
      1286        36  MOL       H26            10.5912537823       28.9486371072       31.5495820108  SYS             36   0.00000
      1287        36  MOL       C27             9.6072624168       28.7285916299       29.7854518477  SYS             36   0.00000
      1288        36  MOL       C28             8.2188846057       28.3779370261       27.7640819876  SYS             36   0.00000
      1289        36  MOL       H29             6.4787369154       25.9707143411       39.5366637532  SYS             36   0.00000
      1290        36  MOL       C30            10.6032726044       29.3144502045       28.9223634652  SYS             36   0.00000
      1291        36  MOL       C31             9.1978486540       28.9290314661       27.0022026661  SYS             36   0.00000
      1292        36  MOL       H32             7.4190689254       28.0715322873       27.3522173360  SYS             36   0.00000
      1293        36  MOL       C33            10.4053002196       29.4116524020       27.5869661306  SYS             36   0.00000
      1294        36  MOL       H34            11.4130732282       29.6384424051       29.2976804003  SYS             36   0.00000
      1295        36  MOL       H35             9.0767126636       28.9939194082       26.0618018063  SYS             36   0.00000
      1296        36  MOL       H36            11.0737341388       29.8033692011       27.0373447013  SYS             36   0.00000
      1297        37  MOL       C1             17.8397930025       11.5514979095       33.6060939061  SYS             37   0.00000
      1298        37  MOL       C2             16.8478788219       10.9799303720       34.4382572978  SYS             37   0.00000
      1299        37  MOL       C3             19.0706110259       12.0394742711       34.2105369102  SYS             37   0.00000
      1300        37  MOL       C4             17.6604113114       11.6534687372       32.2186863595  SYS             37   0.00000
      1301        37  MOL       C5             17.0265499071       10.8788496929       35.8130137117  SYS             37   0.00000
      1302        37  MOL       H6             16.0425585415       10.6588042156       34.0488835486  SYS             37   0.00000
      1303        37  MOL       C7             19.2270403907       11.9200578624       35.6021615010  SYS             37   0.00000
      1304        37  MOL       C8             20.0517637572       12.5967801591       33.3797791999  SYS             37   0.00000
      1305        37  MOL       C9             18.6415640427       12.2107746252       31.3879286493  SYS             37   0.00000
      1306        37  MOL       H10            16.8469071247       11.3362747802       31.8461807872  SYS             37   0.00000
      1307        37  MOL       C11            16.0305397195       10.2929911182       36.6761020943  SYS             37   0.00000
      1308        37  MOL       C12            18.2511166198       11.3547652866       36.4118339902  SYS             37   0.00000
      1309        37  MOL       H13            20.0284076054       12.2376626081       36.0027807014  SYS             37   0.00000
      1310        37  MOL       H14            20.8652679439       12.9139741161       33.7522847722  SYS             37   0.00000
      1311        37  MOL       C15            19.8723820661       12.6987509867       31.9923716533  SYS             37   0.00000
      1312        37  MOL       C16            18.4851346779       12.3301910339       29.9963040585  SYS             37   0.00000
      1313        37  MOL       C17            16.2285121043       10.1957889207       38.0114994289  SYS             37   0.00000
      1314        37  MOL       H18            15.2207390956        9.9689989177       36.3007851592  SYS             37   0.00000
      1315        37  MOL       C19            18.4149277181       11.2295042966       37.8343835719  SYS             37   0.00000
      1316        37  MOL       C20            20.8642962467       13.2703185243       31.1602082617  SYS             37   0.00000
      1317        37  MOL       C21            19.4610584488       12.8954836097       29.1866315693  SYS             37   0.00000
      1318        37  MOL       H22            17.6837674632       12.0125862881       29.5956848581  SYS             37   0.00000
      1319        37  MOL       C23            17.4359636698       10.6784098566       38.5962628933  SYS             37   0.00000
      1320        37  MOL       H24            15.5600781851        9.8040721216       38.5611208582  SYS             37   0.00000
      1321        37  MOL       H25            19.2147433984       11.5359090355       38.2462482235  SYS             37   0.00000
      1322        37  MOL       H26            21.6696165271       13.5914446807       31.5495820108  SYS             37   0.00000
      1323        37  MOL       C27            20.6856251616       13.3713992034       29.7854518477  SYS             37   0.00000
      1324        37  MOL       C28            19.2972473505       13.0207445996       27.7640819876  SYS             37   0.00000
      1325        37  MOL       H29            17.5570996602       10.6135219146       39.5366637532  SYS             37   0.00000
      1326        37  MOL       C30            21.6816353491       13.9572577780       28.9223634652  SYS             37   0.00000
      1327        37  MOL       C31            20.2762113988       13.5718390396       27.0022026661  SYS             37   0.00000
      1328        37  MOL       H32            18.4974316702       12.7143398608       27.3522173360  SYS             37   0.00000
      1329        37  MOL       C33            21.4836629644       14.0544599756       27.5869661306  SYS             37   0.00000
      1330        37  MOL       H34            22.4914359730       14.2812499786       29.2976804003  SYS             37   0.00000
      1331        37  MOL       H35            20.1550754084       13.6367269817       26.0618018063  SYS             37   0.00000
      1332        37  MOL       H36            22.1520968836       14.4461767746       27.0373447013  SYS             37   0.00000
      1333        38  MOL       C1             17.3385315733        8.2746650565       19.5492798577  SYS             38   0.00000
      1334        38  MOL       C2             16.3466173927        7.7030975189       20.3814432493  SYS             38   0.00000
      1335        38  MOL       C3             18.5693495967        8.7626414180       20.1537228617  SYS             38   0.00000
      1336        38  MOL       C4             17.1591498822        8.3766358841       18.1618723111  SYS             38   0.00000
      1337        38  MOL       C5             16.5252884778        7.6020168399       21.7561996633  SYS             38   0.00000
      1338        38  MOL       H6             15.5412971123        7.3819713625       19.9920695002  SYS             38   0.00000
      1339        38  MOL       C7             18.7257789615        8.6432250094       21.5453474525  SYS             38   0.00000
      1340        38  MOL       C8             19.5505023280        9.3199473061       19.3229651515  SYS             38   0.00000
      1341        38  MOL       C9             18.1403026135        8.9339417722       17.3311146008  SYS             38   0.00000
      1342        38  MOL       H10            16.3456456955        8.0594419271       17.7893667388  SYS             38   0.00000
      1343        38  MOL       C11            15.5292782902        7.0161582652       22.6192880458  SYS             38   0.00000
      1344        38  MOL       C12            17.7498551906        8.0779324335       22.3550199417  SYS             38   0.00000
      1345        38  MOL       H13            19.5271461762        8.9608297551       21.9459666529  SYS             38   0.00000
      1346        38  MOL       H14            20.3640065147        9.6371412631       19.6954707238  SYS             38   0.00000
      1347        38  MOL       C15            19.3711206369        9.4219181337       17.9355576049  SYS             38   0.00000
      1348        38  MOL       C16            17.9838732487        9.0533581808       15.9394900100  SYS             38   0.00000
      1349        38  MOL       C17            15.7272506750        6.9189560677       23.9546853804  SYS             38   0.00000
      1350        38  MOL       H18            14.7194776664        6.6921660646       22.2439711107  SYS             38   0.00000
      1351        38  MOL       C19            17.9136662889        7.9526714436       23.7775695234  SYS             38   0.00000
      1352        38  MOL       C20            20.3630348175        9.9934856713       17.1033942132  SYS             38   0.00000
      1353        38  MOL       C21            18.9597970196        9.6186507567       15.1298175208  SYS             38   0.00000
      1354        38  MOL       H22            17.1825060340        8.7357534351       15.5388708096  SYS             38   0.00000
      1355        38  MOL       C23            16.9347022406        7.4015770036       24.5394488449  SYS             38   0.00000
      1356        38  MOL       H24            15.0588167558        6.5272392686       24.5043068097  SYS             38   0.00000
      1357        38  MOL       H25            18.7134819692        8.2590761824       24.1894341751  SYS             38   0.00000
      1358        38  MOL       H26            21.1683550979       10.3146118277       17.4927679624  SYS             38   0.00000
      1359        38  MOL       C27            20.1843637323       10.0945663503       15.7286377993  SYS             38   0.00000
      1360        38  MOL       C28            18.7959859213        9.7439117466       13.7072679391  SYS             38   0.00000
      1361        38  MOL       H29            17.0558382310        7.3366890616       25.4798497047  SYS             38   0.00000
      1362        38  MOL       C30            21.1803739199       10.6804249250       14.8655494167  SYS             38   0.00000
      1363        38  MOL       C31            19.7749499696       10.2950061866       12.9453886177  SYS             38   0.00000
      1364        38  MOL       H32            17.9961702410        9.4375070078       13.2954032875  SYS             38   0.00000
      1365        38  MOL       C33            20.9824015351       10.7776271225       13.5301520821  SYS             38   0.00000
      1366        38  MOL       H34            21.9901745438       11.0044171256       15.2408663518  SYS             38   0.00000
      1367        38  MOL       H35            19.6538139792       10.3598941286       12.0049877578  SYS             38   0.00000
      1368        38  MOL       H36            21.6508354543       11.1693439216       12.9805306528  SYS             38   0.00000
      1369        39  MOL       C1             20.1072392645       17.1005143469       17.9355576049  SYS             39   0.00000
      1370        39  MOL       C2             21.0991534451       17.6720818845       17.1033942132  SYS             39   0.00000
      1371        39  MOL       C3             18.8764212411       16.6125379854       17.3311146008  SYS             39   0.00000
      1372        39  MOL       C4             20.2866209556       16.9985435193       19.3229651515  SYS             39   0.00000
      1373        39  MOL       C5             20.9204823599       17.7731625636       15.7286377993  SYS             39   0.00000
      1374        39  MOL       H6             21.9044737255       17.9932080409       17.4927679624  SYS             39   0.00000
      1375        39  MOL       C7             18.7199918763       16.7319543941       15.9394900100  SYS             39   0.00000
      1376        39  MOL       C8             17.8952685098       16.0552320974       18.1618723111  SYS             39   0.00000
      1377        39  MOL       C9             19.3054682243       16.4412376313       20.1537228617  SYS             39   0.00000
      1378        39  MOL       H10            21.1001251423       17.3157374763       19.6954707238  SYS             39   0.00000
      1379        39  MOL       C11            21.9164925475       18.3590211383       14.8655494167  SYS             39   0.00000
      1380        39  MOL       C12            19.6959156472       17.2972469699       15.1298175208  SYS             39   0.00000
      1381        39  MOL       H13            17.9186246616       16.4143496484       15.5388708096  SYS             39   0.00000
      1382        39  MOL       H14            17.0817643231       15.7380381404       17.7893667388  SYS             39   0.00000
      1383        39  MOL       C15            18.0746502009       15.9532612698       19.5492798577  SYS             39   0.00000
      1384        39  MOL       C16            19.4618975891       16.3218212226       21.5453474525  SYS             39   0.00000
      1385        39  MOL       C17            21.7185201627       18.4562233358       13.5301520821  SYS             39   0.00000
      1386        39  MOL       H18            22.7262931714       18.6830133388       15.2408663518  SYS             39   0.00000
      1387        39  MOL       C19            19.5321045489       17.4225079599       13.7072679391  SYS             39   0.00000
      1388        39  MOL       C20            17.0827360203       15.3816937322       20.3814432493  SYS             39   0.00000
      1389        39  MOL       C21            18.4859738182       15.7565286468       22.3550199417  SYS             39   0.00000
      1390        39  MOL       H22            20.2632648038       16.6394259683       21.9459666529  SYS             39   0.00000
      1391        39  MOL       C23            20.5110685972       17.9736023999       12.9453886177  SYS             39   0.00000
      1392        39  MOL       H24            22.3869540819       18.8479401349       12.9805306528  SYS             39   0.00000
      1393        39  MOL       H25            18.7322888686       17.1161032210       13.2954032875  SYS             39   0.00000
      1394        39  MOL       H26            16.2774157399       15.0605675758       19.9920695002  SYS             39   0.00000
      1395        39  MOL       C27            17.2614071054       15.2806130531       21.7561996633  SYS             39   0.00000
      1396        39  MOL       C28            18.6497849165       15.6312676568       23.7775695234  SYS             39   0.00000
      1397        39  MOL       H29            20.3899326068       18.0384903419       12.0049877578  SYS             39   0.00000
      1398        39  MOL       C30            16.2653969179       14.6947544784       22.6192880458  SYS             39   0.00000
      1399        39  MOL       C31            17.6708208682       15.0801732168       24.5394488449  SYS             39   0.00000
      1400        39  MOL       H32            19.4496005968       15.9376723957       24.1894341751  SYS             39   0.00000
      1401        39  MOL       C33            16.4633693026       14.5975522809       23.9546853804  SYS             39   0.00000
      1402        39  MOL       H34            15.4555962940       14.3707622779       22.2439711107  SYS             39   0.00000
      1403        39  MOL       H35            17.7919568586       15.0152852748       25.4798497047  SYS             39   0.00000
      1404        39  MOL       H36            15.7949353834       14.2058354818       24.5043068097  SYS             39   0.00000
      1405        40  MOL       C1             18.5759116301       19.2300941228       33.6060939061  SYS             40   0.00000
      1406        40  MOL       C2             17.5839974495       18.6585265852       34.4382572978  SYS             40   0.00000
      1407        40  MOL       C3             19.8067296535       19.7180704843       34.2105369102  SYS             40   0.00000
      1408        40  MOL       C4             18.3965299390       19.3320649504       32.2186863595  SYS             40   0.00000
      1409        40  MOL       C5             17.7626685347       18.5574459061       35.8130137117  SYS             40   0.00000
      1410        40  MOL       H6             16.7786771691       18.3374004288       34.0488835486  SYS             40   0.00000
      1411        40  MOL       C7             19.9631590183       19.5986540756       35.6021615010  SYS             40   0.00000
      1412        40  MOL       C8             20.7878823848       20.2753763723       33.3797791999  SYS             40   0.00000
      1413        40  MOL       C9             19.3776826703       19.8893708384       31.3879286493  SYS             40   0.00000
      1414        40  MOL       H10            17.5830257523       19.0148709934       31.8461807872  SYS             40   0.00000
      1415        40  MOL       C11            16.7666583471       17.9715873315       36.6761020943  SYS             40   0.00000
      1416        40  MOL       C12            18.9872352474       19.0333614998       36.4118339902  SYS             40   0.00000
      1417        40  MOL       H13            20.7645262330       19.9162588214       36.0027807014  SYS             40   0.00000
      1418        40  MOL       H14            21.6013865715       20.5925703294       33.7522847722  SYS             40   0.00000
      1419        40  MOL       C15            20.6085006937       20.3773472000       31.9923716533  SYS             40   0.00000
      1420        40  MOL       C16            19.2212533055       20.0087872471       29.9963040585  SYS             40   0.00000
      1421        40  MOL       C17            16.9646307319       17.8743851340       38.0114994289  SYS             40   0.00000
      1422        40  MOL       H18            15.9568577232       17.6475951309       36.3007851592  SYS             40   0.00000
      1423        40  MOL       C19            19.1510463457       18.9081005099       37.8343835719  SYS             40   0.00000
      1424        40  MOL       C20            21.6004148743       20.9489147375       31.1602082617  SYS             40   0.00000
      1425        40  MOL       C21            20.1971770764       20.5740798229       29.1866315693  SYS             40   0.00000
      1426        40  MOL       H22            18.4198860908       19.6911825014       29.5956848581  SYS             40   0.00000
      1427        40  MOL       C23            18.1720822974       18.3570060699       38.5962628933  SYS             40   0.00000
      1428        40  MOL       H24            16.2961968127       17.4826683349       38.5611208582  SYS             40   0.00000
      1429        40  MOL       H25            19.9508620260       19.2145052487       38.2462482235  SYS             40   0.00000
      1430        40  MOL       H26            22.4057351547       21.2700408940       31.5495820108  SYS             40   0.00000
      1431        40  MOL       C27            21.4217437892       21.0499954166       29.7854518477  SYS             40   0.00000
      1432        40  MOL       C28            20.0333659781       20.6993408129       27.7640819876  SYS             40   0.00000
      1433        40  MOL       H29            18.2932182878       18.2921181278       39.5366637532  SYS             40   0.00000
      1434        40  MOL       C30            22.4177539767       21.6358539913       28.9223634652  SYS             40   0.00000
      1435        40  MOL       C31            21.0123300264       21.2504352529       27.0022026661  SYS             40   0.00000
      1436        40  MOL       H32            19.2335502978       20.3929360741       27.3522173360  SYS             40   0.00000
      1437        40  MOL       C33            22.2197815920       21.7330561888       27.5869661306  SYS             40   0.00000
      1438        40  MOL       H34            23.2275546006       21.9598461918       29.2976804003  SYS             40   0.00000
      1439        40  MOL       H35            20.8911940360       21.3153231949       26.0618018063  SYS             40   0.00000
      1440        40  MOL       H36            22.8882155112       22.1247729879       27.0373447013  SYS             40   0.00000
      1441        41  MOL       C1             19.3120302577       26.9086903360       33.6060939061  SYS             41   0.00000
      1442        41  MOL       C2             18.3201160771       26.3371227985       34.4382572978  SYS             41   0.00000
      1443        41  MOL       C3             20.5428482811       27.3966666976       34.2105369102  SYS             41   0.00000
      1444        41  MOL       C4             19.1326485666       27.0106611637       32.2186863595  SYS             41   0.00000
      1445        41  MOL       C5             18.4987871623       26.2360421194       35.8130137117  SYS             41   0.00000
      1446        41  MOL       H6             17.5147957967       26.0159966420       34.0488835486  SYS             41   0.00000
      1447        41  MOL       C7             20.6992776459       27.2772502889       35.6021615010  SYS             41   0.00000
      1448        41  MOL       C8             21.5240010124       27.9539725856       33.3797791999  SYS             41   0.00000
      1449        41  MOL       C9             20.1138012979       27.5679670517       31.3879286493  SYS             41   0.00000
      1450        41  MOL       H10            18.3191443799       26.6934672067       31.8461807872  SYS             41   0.00000
      1451        41  MOL       C11            17.5027769747       25.6501835447       36.6761020943  SYS             41   0.00000
      1452        41  MOL       C12            19.7233538750       26.7119577131       36.4118339902  SYS             41   0.00000
      1453        41  MOL       H13            21.5006448606       27.5948550346       36.0027807014  SYS             41   0.00000
      1454        41  MOL       H14            22.3375051991       28.2711665426       33.7522847722  SYS             41   0.00000
      1455        41  MOL       C15            21.3446193213       28.0559434132       31.9923716533  SYS             41   0.00000
      1456        41  MOL       C16            19.9573719331       27.6873834604       29.9963040585  SYS             41   0.00000
      1457        41  MOL       C17            17.7007493595       25.5529813472       38.0114994289  SYS             41   0.00000
      1458        41  MOL       H18            16.6929763508       25.3261913442       36.3007851592  SYS             41   0.00000
      1459        41  MOL       C19            19.8871649733       26.5866967231       37.8343835719  SYS             41   0.00000
      1460        41  MOL       C20            22.3365335019       28.6275109508       31.1602082617  SYS             41   0.00000
      1461        41  MOL       C21            20.9332957040       28.2526760362       29.1866315693  SYS             41   0.00000
      1462        41  MOL       H22            19.1560047184       27.3697787146       29.5956848581  SYS             41   0.00000
      1463        41  MOL       C23            18.9082009250       26.0356022831       38.5962628933  SYS             41   0.00000
      1464        41  MOL       H24            17.0323154403       25.1612645481       38.5611208582  SYS             41   0.00000
      1465        41  MOL       H25            20.6869806536       26.8931014619       38.2462482235  SYS             41   0.00000
      1466        41  MOL       H26            23.1418537823       28.9486371072       31.5495820108  SYS             41   0.00000
      1467        41  MOL       C27            22.1578624168       28.7285916299       29.7854518477  SYS             41   0.00000
      1468        41  MOL       C28            20.7694846057       28.3779370261       27.7640819876  SYS             41   0.00000
      1469        41  MOL       H29            19.0293369154       25.9707143411       39.5366637532  SYS             41   0.00000
      1470        41  MOL       C30            23.1538726044       29.3144502045       28.9223634652  SYS             41   0.00000
      1471        41  MOL       C31            21.7484486540       28.9290314661       27.0022026661  SYS             41   0.00000
      1472        41  MOL       H32            19.9696689254       28.0715322873       27.3522173360  SYS             41   0.00000
      1473        41  MOL       C33            22.9559002196       29.4116524020       27.5869661306  SYS             41   0.00000
      1474        41  MOL       H34            23.9636732282       29.6384424051       29.2976804003  SYS             41   0.00000
      1475        41  MOL       H35            21.6273126636       28.9939194082       26.0618018063  SYS             41   0.00000
      1476        41  MOL       H36            23.6243341388       29.8033692011       27.0373447013  SYS             41   0.00000
      1477        42  MOL       C1             16.8372701440        4.9978322035        5.4924658092  SYS             42   0.00000
      1478        42  MOL       C2             15.8453559635        4.4262646659        6.3246292009  SYS             42   0.00000
      1479        42  MOL       C3             18.0680881675        5.4858085650        6.0969088133  SYS             42   0.00000
      1480        42  MOL       C4             16.6578884529        5.0998030311        4.1050582626  SYS             42   0.00000
      1481        42  MOL       C5             16.0240270486        4.3251839868        7.6993856148  SYS             42   0.00000
      1482        42  MOL       H6             15.0400356830        4.1051385095        5.9352554517  SYS             42   0.00000
      1483        42  MOL       C7             18.2245175323        5.3663921563        7.4885334041  SYS             42   0.00000
      1484        42  MOL       C8             19.0492408988        6.0431144530        5.2661511030  SYS             42   0.00000
      1485        42  MOL       C9             17.6390411842        5.6571089191        3.2743005524  SYS             42   0.00000
      1486        42  MOL       H10            15.8443842662        4.7826090741        3.7325526903  SYS             42   0.00000
      1487        42  MOL       C11            15.0280168610        3.7393254122        8.5624739974  SYS             42   0.00000
      1488        42  MOL       C12            17.2485937614        4.8010995805        8.2982058933  SYS             42   0.00000
      1489        42  MOL       H13            19.0258847469        5.6839969021        7.8891526045  SYS             42   0.00000
      1490        42  MOL       H14            19.8627450855        6.3603084100        5.6386566753  SYS             42   0.00000
      1491        42  MOL       C15            18.8698592077        6.1450852807        3.8787435564  SYS             42   0.00000
      1492        42  MOL       C16            17.4826118194        5.7765253278        1.8826759616  SYS             42   0.00000
      1493        42  MOL       C17            15.2259892458        3.6421232146        9.8978713320  SYS             42   0.00000
      1494        42  MOL       H18            14.2182162371        3.4153332116        8.1871570623  SYS             42   0.00000
      1495        42  MOL       C19            17.4124048597        4.6758385906        9.7207554750  SYS             42   0.00000
      1496        42  MOL       C20            19.8617733882        6.7166528182        3.0465801648  SYS             42   0.00000
      1497        42  MOL       C21            18.4585355903        6.3418179036        1.0730034724  SYS             42   0.00000
      1498        42  MOL       H22            16.6812446048        5.4589205821        1.4820567612  SYS             42   0.00000
      1499        42  MOL       C23            16.4334408114        4.1247441506       10.4826347964  SYS             42   0.00000
      1500        42  MOL       H24            14.5575553266        3.2504064156       10.4474927613  SYS             42   0.00000
      1501        42  MOL       H25            18.2122205399        4.9822433294       10.1326201266  SYS             42   0.00000
      1502        42  MOL       H26            20.6670936686        7.0377789746        3.4359539139  SYS             42   0.00000
      1503        42  MOL       C27            19.6831023031        6.8177334973        1.6718237508  SYS             42   0.00000
      1504        42  MOL       C28            18.2947244920        6.4670788936       -0.3495461093  SYS             42   0.00000
      1505        42  MOL       H29            16.5545768018        4.0598562085       11.4230356562  SYS             42   0.00000
      1506        42  MOL       C30            20.6791124907        7.4035920720        0.8087353683  SYS             42   0.00000
      1507        42  MOL       C31            19.2736885403        7.0181733336       -1.1114254308  SYS             42   0.00000
      1508        42  MOL       H32            17.4949088118        6.1606741547       -0.7614107610  SYS             42   0.00000
      1509        42  MOL       C33            20.4811401059        7.5007942695       -0.5266619663  SYS             42   0.00000
      1510        42  MOL       H34            21.4889131146        7.7275842725        1.1840523033  SYS             42   0.00000
      1511        42  MOL       H35            19.1525525499        7.0830612756       -2.0518262906  SYS             42   0.00000
      1512        42  MOL       H36            21.1495740251        7.8925110686       -1.0762833956  SYS             42   0.00000
      1513        43  MOL       C1             17.5733887716       12.6764284167        5.4924658092  SYS             43   0.00000
      1514        43  MOL       C2             16.5814745911       12.1048608792        6.3246292009  SYS             43   0.00000
      1515        43  MOL       C3             18.8042067951       13.1644047782        6.0969088133  SYS             43   0.00000
      1516        43  MOL       C4             17.3940070805       12.7783992443        4.1050582626  SYS             43   0.00000
      1517        43  MOL       C5             16.7601456762       12.0037802001        7.6993856148  SYS             43   0.00000
      1518        43  MOL       H6             15.7761543107       11.7837347227        5.9352554517  SYS             43   0.00000
      1519        43  MOL       C7             18.9606361599       13.0449883696        7.4885334041  SYS             43   0.00000
      1520        43  MOL       C8             19.7853595264       13.7217106663        5.2661511030  SYS             43   0.00000
      1521        43  MOL       C9             18.3751598118       13.3357051324        3.2743005524  SYS             43   0.00000
      1522        43  MOL       H10            16.5805028938       12.4612052873        3.7325526903  SYS             43   0.00000
      1523        43  MOL       C11            15.7641354886       11.4179216254        8.5624739974  SYS             43   0.00000
      1524        43  MOL       C12            17.9847123890       12.4796957938        8.2982058933  SYS             43   0.00000
      1525        43  MOL       H13            19.7620033745       13.3625931153        7.8891526045  SYS             43   0.00000
      1526        43  MOL       H14            20.5988637131       14.0389046233        5.6386566753  SYS             43   0.00000
      1527        43  MOL       C15            19.6059778353       13.8236814939        3.8787435564  SYS             43   0.00000
      1528        43  MOL       C16            18.2187304470       13.4551215411        1.8826759616  SYS             43   0.00000
      1529        43  MOL       C17            15.9621078734       11.3207194279        9.8978713320  SYS             43   0.00000
      1530        43  MOL       H18            14.9543348647       11.0939294249        8.1871570623  SYS             43   0.00000
      1531        43  MOL       C19            18.1485234873       12.3544348038        9.7207554750  SYS             43   0.00000
      1532        43  MOL       C20            20.5978920158       14.3952490315        3.0465801648  SYS             43   0.00000
      1533        43  MOL       C21            19.1946542179       14.0204141169        1.0730034724  SYS             43   0.00000
      1534        43  MOL       H22            17.4173632324       13.1375167953        1.4820567612  SYS             43   0.00000
      1535        43  MOL       C23            17.1695594390       11.8033403638       10.4826347964  SYS             43   0.00000
      1536        43  MOL       H24            15.2936739542       10.9290026288       10.4474927613  SYS             43   0.00000
      1537        43  MOL       H25            18.9483391675       12.6608395426       10.1326201266  SYS             43   0.00000
      1538        43  MOL       H26            21.4032122962       14.7163751879        3.4359539139  SYS             43   0.00000
      1539        43  MOL       C27            20.4192209307       14.4963297106        1.6718237508  SYS             43   0.00000
      1540        43  MOL       C28            19.0308431196       14.1456751068       -0.3495461093  SYS             43   0.00000
      1541        43  MOL       H29            17.2906954294       11.7384524218       11.4230356562  SYS             43   0.00000
      1542        43  MOL       C30            21.4152311183       15.0821882852        0.8087353683  SYS             43   0.00000
      1543        43  MOL       C31            20.0098071679       14.6967695468       -1.1114254308  SYS             43   0.00000
      1544        43  MOL       H32            18.2310274394       13.8392703680       -0.7614107610  SYS             43   0.00000
      1545        43  MOL       C33            21.2172587335       15.1793904827       -0.5266619663  SYS             43   0.00000
      1546        43  MOL       H34            22.2250317422       15.4061804858        1.1840523033  SYS             43   0.00000
      1547        43  MOL       H35            19.8886711775       14.7616574889       -2.0518262906  SYS             43   0.00000
      1548        43  MOL       H36            21.8856926527       15.5711072818       -1.0762833956  SYS             43   0.00000
      1549        44  MOL       C1             20.8433578921       24.7791105602       17.9355576049  SYS             44   0.00000
      1550        44  MOL       C2             21.8352720727       25.3506780977       17.1033942132  SYS             44   0.00000
      1551        44  MOL       C3             19.6125398687       24.2911341987       17.3311146008  SYS             44   0.00000
      1552        44  MOL       C4             21.0227395832       24.6771397326       19.3229651515  SYS             44   0.00000
      1553        44  MOL       C5             21.6566009875       25.4517587768       15.7286377993  SYS             44   0.00000
      1554        44  MOL       H6             22.6405923531       25.6718042542       17.4927679624  SYS             44   0.00000
      1555        44  MOL       C7             19.4561105039       24.4105506073       15.9394900100  SYS             44   0.00000
      1556        44  MOL       C8             18.6313871374       23.7338283106       18.1618723111  SYS             44   0.00000
      1557        44  MOL       C9             20.0415868519       24.1198338445       20.1537228617  SYS             44   0.00000
      1558        44  MOL       H10            21.8362437699       24.9943336896       19.6954707238  SYS             44   0.00000
      1559        44  MOL       C11            22.6526111751       26.0376173515       14.8655494167  SYS             44   0.00000
      1560        44  MOL       C12            20.4320342748       24.9758431831       15.1298175208  SYS             44   0.00000
      1561        44  MOL       H13            18.6547432892       24.0929458616       15.5388708096  SYS             44   0.00000
      1562        44  MOL       H14            17.8178829507       23.4166343536       17.7893667388  SYS             44   0.00000
      1563        44  MOL       C15            18.8107688285       23.6318574830       19.5492798577  SYS             44   0.00000
      1564        44  MOL       C16            20.1980162167       24.0004174358       21.5453474525  SYS             44   0.00000
      1565        44  MOL       C17            22.4546387903       26.1348195490       13.5301520821  SYS             44   0.00000
      1566        44  MOL       H18            23.4624117990       26.3616095521       15.2408663518  SYS             44   0.00000
      1567        44  MOL       C19            20.2682231765       25.1011041731       13.7072679391  SYS             44   0.00000
      1568        44  MOL       C20            17.8188546479       23.0602899454       20.3814432493  SYS             44   0.00000
      1569        44  MOL       C21            19.2220924458       23.4351248600       22.3550199417  SYS             44   0.00000
      1570        44  MOL       H22            20.9993834314       24.3180221816       21.9459666529  SYS             44   0.00000
      1571        44  MOL       C23            21.2471872248       25.6521986131       12.9453886177  SYS             44   0.00000
      1572        44  MOL       H24            23.1230727095       26.5265363481       12.9805306528  SYS             44   0.00000
      1573        44  MOL       H25            19.4684074962       24.7946994343       13.2954032875  SYS             44   0.00000
      1574        44  MOL       H26            17.0135343675       22.7391637890       19.9920695002  SYS             44   0.00000
      1575        44  MOL       C27            17.9975257330       22.9592092664       21.7561996633  SYS             44   0.00000
      1576        44  MOL       C28            19.3859035441       23.3098638701       23.7775695234  SYS             44   0.00000
      1577        44  MOL       H29            21.1260512344       25.7170865551       12.0049877578  SYS             44   0.00000
      1578        44  MOL       C30            17.0015155455       22.3733506917       22.6192880458  SYS             44   0.00000
      1579        44  MOL       C31            18.4069394958       22.7587694301       24.5394488449  SYS             44   0.00000
      1580        44  MOL       H32            20.1857192244       23.6162686089       24.1894341751  SYS             44   0.00000
      1581        44  MOL       C33            17.1994879302       22.2761484942       23.9546853804  SYS             44   0.00000
      1582        44  MOL       H34            16.1917149216       22.0493584911       22.2439711107  SYS             44   0.00000
      1583        44  MOL       H35            18.5280754862       22.6938814881       25.4798497047  SYS             44   0.00000
      1584        44  MOL       H36            16.5310540110       21.8844316951       24.5043068097  SYS             44   0.00000
      1585        45  MOL       C1             18.3095073992       20.3550246300        5.4924658092  SYS             45   0.00000
      1586        45  MOL       C2             17.3175932187       19.7834570924        6.3246292009  SYS             45   0.00000
      1587        45  MOL       C3             19.5403254227       20.8430009915        6.0969088133  SYS             45   0.00000
      1588        45  MOL       C4             18.1301257081       20.4569954576        4.1050582626  SYS             45   0.00000
      1589        45  MOL       C5             17.4962643038       19.6823764133        7.6993856148  SYS             45   0.00000
      1590        45  MOL       H6             16.5122729383       19.4623309360        5.9352554517  SYS             45   0.00000
      1591        45  MOL       C7             19.6967547875       20.7235845828        7.4885334041  SYS             45   0.00000
      1592        45  MOL       C8             20.5214781540       21.4003068795        5.2661511030  SYS             45   0.00000
      1593        45  MOL       C9             19.1112784394       21.0143013456        3.2743005524  SYS             45   0.00000
      1594        45  MOL       H10            17.3166215214       20.1398015006        3.7325526903  SYS             45   0.00000
      1595        45  MOL       C11            16.5002541162       19.0965178387        8.5624739974  SYS             45   0.00000
      1596        45  MOL       C12            18.7208310166       20.1582920070        8.2982058933  SYS             45   0.00000
      1597        45  MOL       H13            20.4981220021       21.0411893286        7.8891526045  SYS             45   0.00000
      1598        45  MOL       H14            21.3349823407       21.7175008365        5.6386566753  SYS             45   0.00000
      1599        45  MOL       C15            20.3420964629       21.5022777072        3.8787435564  SYS             45   0.00000
      1600        45  MOL       C16            18.9548490746       21.1337177543        1.8826759616  SYS             45   0.00000
      1601        45  MOL       C17            16.6982265010       18.9993156411        9.8978713320  SYS             45   0.00000
      1602        45  MOL       H18            15.6904534923       18.7725256381        8.1871570623  SYS             45   0.00000
      1603        45  MOL       C19            18.8846421149       20.0330310171        9.7207554750  SYS             45   0.00000
      1604        45  MOL       C20            21.3340106434       22.0738452447        3.0465801648  SYS             45   0.00000
      1605        45  MOL       C21            19.9307728455       21.6990103301        1.0730034724  SYS             45   0.00000
      1606        45  MOL       H22            18.1534818600       20.8161130086        1.4820567612  SYS             45   0.00000
      1607        45  MOL       C23            17.9056780666       19.4819365770       10.4826347964  SYS             45   0.00000
      1608        45  MOL       H24            16.0297925818       18.6075988421       10.4474927613  SYS             45   0.00000
      1609        45  MOL       H25            19.6844577951       20.3394357559       10.1326201266  SYS             45   0.00000
      1610        45  MOL       H26            22.1393309239       22.3949714011        3.4359539139  SYS             45   0.00000
      1611        45  MOL       C27            21.1553395583       22.1749259238        1.6718237508  SYS             45   0.00000
      1612        45  MOL       C28            19.7669617472       21.8242713201       -0.3495461093  SYS             45   0.00000
      1613        45  MOL       H29            18.0268140570       19.4170486350       11.4230356562  SYS             45   0.00000
      1614        45  MOL       C30            22.1513497459       22.7607844985        0.8087353683  SYS             45   0.00000
      1615        45  MOL       C31            20.7459257955       22.3753657601       -1.1114254308  SYS             45   0.00000
      1616        45  MOL       H32            18.9671460670       21.5178665812       -0.7614107610  SYS             45   0.00000
      1617        45  MOL       C33            21.9533773611       22.8579866960       -0.5266619663  SYS             45   0.00000
      1618        45  MOL       H34            22.9611503698       23.0847766990        1.1840523033  SYS             45   0.00000
      1619        45  MOL       H35            20.6247898051       22.4402537021       -2.0518262906  SYS             45   0.00000
      1620        45  MOL       H36            22.6218112803       23.2497034951       -1.0762833956  SYS             45   0.00000
      1621        46  MOL       C1              4.0592718575       12.6604959616       17.7500076595  SYS             46   0.00000
      1622        46  MOL       C2              5.0436350283       12.6555870450       16.7308886409  SYS             46   0.00000
      1623        46  MOL       C3              2.8151749739       13.3896450332       17.5180702277  SYS             46   0.00000
      1624        46  MOL       C4              4.2298569429       11.9803906716       18.9631107118  SYS             46   0.00000
      1625        46  MOL       C5              4.8480005004       13.3148378362       15.5304367212  SYS             46   0.00000
      1626        46  MOL       H6              5.8579354546       12.1879260907       16.8756738256  SYS             46   0.00000
      1627        46  MOL       C7              2.6447427975       14.0663609973       16.2937217240  SYS             46   0.00000
      1628        46  MOL       C8              1.8394138948       13.3947887318       18.5217267507  SYS             46   0.00000
      1629        46  MOL       C9              3.2540958639       11.9855343702       19.9667672349  SYS             46   0.00000
      1630        46  MOL       H10             5.0435088841       11.5079171652       19.0938390825  SYS             46   0.00000
      1631        46  MOL       C11             5.8322309727       13.2979904407       14.4930438444  SYS             46   0.00000
      1632        46  MOL       C12             3.6173208865       14.0391547641       15.3041220150  SYS             46   0.00000
      1633        46  MOL       H13             1.8435484126       14.5538836046       16.1419081323  SYS             46   0.00000
      1634        46  MOL       H14             1.0257619537       13.8672622382       18.3909983801  SYS             46   0.00000
      1635        46  MOL       C15             2.0099989803       12.7146834419       19.7348298031  SYS             46   0.00000
      1636        46  MOL       C16             3.4245280403       11.3088184062       21.1911157385  SYS             46   0.00000
      1637        46  MOL       C17             5.6210310336       13.9415269686       13.3207055528  SYS             46   0.00000
      1638        46  MOL       H18             6.6469317840       12.8291312463       14.6293949407  SYS             46   0.00000
      1639        46  MOL       C19             3.4455066368       14.6990072040       14.0502542019  SYS             46   0.00000
      1640        46  MOL       C20             1.0256358095       12.7195923585       20.7539488216  SYS             46   0.00000
      1641        46  MOL       C21             2.4519499513       11.3360246394       22.1807154475  SYS             46   0.00000
      1642        46  MOL       H22             4.2257224252       10.8212957989       21.3429293302  SYS             46   0.00000
      1643        46  MOL       C23             4.4031734851       14.6559742145       13.0915794838  SYS             46   0.00000
      1644        46  MOL       H24             6.2875348349       13.9182867421       12.6445727971  SYS             46   0.00000
      1645        46  MOL       H25             2.6428890130       15.1801815400       13.8843837961  SYS             46   0.00000
      1646        46  MOL       H26             0.2113353832       13.1872533128       20.6091636369  SYS             46   0.00000
      1647        46  MOL       C27             1.2212703374       12.0603415672       21.9544007413  SYS             46   0.00000
      1648        46  MOL       C28             2.6237642010       10.6761721994       23.4345832606  SYS             46   0.00000
      1649        46  MOL       H29             4.2647600149       15.1010601047       12.2636331363  SYS             46   0.00000
      1650        46  MOL       C30             0.2370398651       12.0771889627       22.9917936181  SYS             46   0.00000
      1651        46  MOL       C31             1.6660973527       10.7192051890       24.3932579788  SYS             46   0.00000
      1652        46  MOL       H32             3.4263818247       10.1949978635       23.6004536664  SYS             46   0.00000
      1653        46  MOL       C33             0.4482398041       11.4336524348       24.1641319098  SYS             46   0.00000
      1654        46  MOL       H34            -0.5776609463       12.5460481572       22.8554425219  SYS             46   0.00000
      1655        46  MOL       H35             1.8045108229       10.2741192987       25.2212043262  SYS             46   0.00000
      1656        46  MOL       H36            -0.2182639971       11.4568926613       24.8402646655  SYS             46   0.00000
      1657        47  MOL       C1              3.5580104282        9.3836631085        3.6931936110  SYS             47   0.00000
      1658        47  MOL       C2              4.5423735990        9.3787541920        2.6740745925  SYS             47   0.00000
      1659        47  MOL       C3              2.3139135447       10.1128121802        3.4612561792  SYS             47   0.00000
      1660        47  MOL       C4              3.7285955137        8.7035578186        4.9062966634  SYS             47   0.00000
      1661        47  MOL       C5              4.3467390711       10.0380049832        1.4736226727  SYS             47   0.00000
      1662        47  MOL       H6              5.3566740254        8.9110932376        2.8188597772  SYS             47   0.00000
      1663        47  MOL       C7              2.1434813682       10.7895281442        2.2369076756  SYS             47   0.00000
      1664        47  MOL       C8              1.3381524656       10.1179558788        4.4649127023  SYS             47   0.00000
      1665        47  MOL       C9              2.7528344346        8.7087015172        5.9099531864  SYS             47   0.00000
      1666        47  MOL       H10             4.5422474549        8.2310843122        5.0370250340  SYS             47   0.00000
      1667        47  MOL       C11             5.3309695434       10.0211575877        0.4362297960  SYS             47   0.00000
      1668        47  MOL       C12             3.1160594572       10.7623219110        1.2473079666  SYS             47   0.00000
      1669        47  MOL       H13             1.3422869833       11.2770507515        2.0850940839  SYS             47   0.00000
      1670        47  MOL       H14             0.5245005244       10.5904293852        4.3341843316  SYS             47   0.00000
      1671        47  MOL       C15             1.5087375511        9.4378505888        5.6780157546  SYS             47   0.00000
      1672        47  MOL       C16             2.9232666111        8.0319855531        7.1343016901  SYS             47   0.00000
      1673        47  MOL       C17             5.1197696044       10.6646941156       -0.7361084957  SYS             47   0.00000
      1674        47  MOL       H18             6.1456703548        9.5522983933        0.5725808922  SYS             47   0.00000
      1675        47  MOL       C19             2.9442452076       11.4221743510       -0.0065598466  SYS             47   0.00000
      1676        47  MOL       C20             0.5243743803        9.4427595054        6.6971347732  SYS             47   0.00000
      1677        47  MOL       C21             1.9506885221        8.0591917864        8.1239013991  SYS             47   0.00000
      1678        47  MOL       H22             3.7244609960        7.5444629458        7.2861152818  SYS             47   0.00000
      1679        47  MOL       C23             3.9019120558       11.3791413614       -0.9652345647  SYS             47   0.00000
      1680        47  MOL       H24             5.7862734056       10.6414538891       -1.4122412514  SYS             47   0.00000
      1681        47  MOL       H25             2.1416275838       11.9033486870       -0.1724302523  SYS             47   0.00000
      1682        47  MOL       H26            -0.2899260461        9.9104204598        6.5523495885  SYS             47   0.00000
      1683        47  MOL       C27             0.7200089082        8.7835087142        7.8975866929  SYS             47   0.00000
      1684        47  MOL       C28             2.1225027717        7.3993393464        9.3777692122  SYS             47   0.00000
      1685        47  MOL       H29             3.7634985856       11.8242272517       -1.7931809121  SYS             47   0.00000
      1686        47  MOL       C30            -0.2642215642        8.8003561097        8.9349795697  SYS             47   0.00000
      1687        47  MOL       C31             1.1648359234        7.4423723360       10.3364439303  SYS             47   0.00000
      1688        47  MOL       H32             2.9251203955        6.9181650104        9.5436396180  SYS             47   0.00000
      1689        47  MOL       C33            -0.0530216251        8.1568195818       10.1073178613  SYS             47   0.00000
      1690        47  MOL       H34            -1.0789223755        9.2692153041        8.7986284734  SYS             47   0.00000
      1691        47  MOL       H35             1.3032493937        6.9972864457       11.1643902778  SYS             47   0.00000
      1692        47  MOL       H36            -0.7195254263        8.1800598083       10.7834506170  SYS             47   0.00000
      1693        48  MOL       C1              4.5605332867       15.9373288146       31.8068217079  SYS             48   0.00000
      1694        48  MOL       C2              5.5448964575       15.9324198980       30.7877026894  SYS             48   0.00000
      1695        48  MOL       C3              3.3164364031       16.6664778863       31.5748842761  SYS             48   0.00000
      1696        48  MOL       C4              4.7311183721       15.2572235247       33.0199247603  SYS             48   0.00000
      1697        48  MOL       C5              5.3492619296       16.5916706893       29.5872507697  SYS             48   0.00000
      1698        48  MOL       H6              6.3591968838       15.4647589437       30.9324878741  SYS             48   0.00000
      1699        48  MOL       C7              3.1460042267       17.3431938503       30.3505357725  SYS             48   0.00000
      1700        48  MOL       C8              2.3406753241       16.6716215848       32.5785407992  SYS             48   0.00000
      1701        48  MOL       C9              3.7553572931       15.2623672232       34.0235812834  SYS             48   0.00000
      1702        48  MOL       H10             5.5447703133       14.7847500182       33.1506531309  SYS             48   0.00000
      1703        48  MOL       C11             6.3334924019       16.5748232937       28.5498578929  SYS             48   0.00000
      1704        48  MOL       C12             4.1185823157       17.3159876171       29.3609360635  SYS             48   0.00000
      1705        48  MOL       H13             2.3448098418       17.8307164576       30.1987221808  SYS             48   0.00000
      1706        48  MOL       H14             1.5270233829       17.1440950913       32.4478124285  SYS             48   0.00000
      1707        48  MOL       C15             2.5112604095       15.9915162949       33.7916438516  SYS             48   0.00000
      1708        48  MOL       C16             3.9257894695       14.5856512592       35.2479297870  SYS             48   0.00000
      1709        48  MOL       C17             6.1222924628       17.2183598217       27.3775196012  SYS             48   0.00000
      1710        48  MOL       H18             7.1481932133       16.1059640993       28.6862089892  SYS             48   0.00000
      1711        48  MOL       C19             3.9467680660       17.9758400570       28.1070682504  SYS             48   0.00000
      1712        48  MOL       C20             1.5268972387       15.9964252115       34.8107628701  SYS             48   0.00000
      1713        48  MOL       C21             2.9532113805       14.6128574924       36.2375294960  SYS             48   0.00000
      1714        48  MOL       H22             4.7269838544       14.0981286519       35.3997433787  SYS             48   0.00000
      1715        48  MOL       C23             4.9044349143       17.9328070675       27.1483935323  SYS             48   0.00000
      1716        48  MOL       H24             6.7887962641       17.1951195952       26.7013868455  SYS             48   0.00000
      1717        48  MOL       H25             3.1441504423       18.4570143930       27.9411978446  SYS             48   0.00000
      1718        48  MOL       H26             0.7125968124       16.4640861658       34.6659776854  SYS             48   0.00000
      1719        48  MOL       C27             1.7225317666       15.3371744203       36.0112147898  SYS             48   0.00000
      1720        48  MOL       C28             3.1250256302       13.9530050525       37.4913973091  SYS             48   0.00000
      1721        48  MOL       H29             4.7660214441       18.3778929578       26.3204471848  SYS             48   0.00000
      1722        48  MOL       C30             0.7383012943       15.3540218158       37.0486076666  SYS             48   0.00000
      1723        48  MOL       C31             2.1673587819       13.9960380420       38.4500720272  SYS             48   0.00000
      1724        48  MOL       H32             3.9276432540       13.4718307165       37.6572677149  SYS             48   0.00000
      1725        48  MOL       C33             0.9495012334       14.7104852878       38.2209459582  SYS             48   0.00000
      1726        48  MOL       H34            -0.0763995170       15.8228810102       36.9122565703  SYS             48   0.00000
      1727        48  MOL       H35             2.3057722521       13.5509521517       39.2780183747  SYS             48   0.00000
      1728        48  MOL       H36             0.2829974321       14.7337255143       38.8970787140  SYS             48   0.00000
      1729        49  MOL       C1              0.7726189235        1.7592543756        5.6780157546  SYS             49   0.00000
      1730        49  MOL       C2             -0.2117442473        1.7641632922        6.6971347732  SYS             49   0.00000
      1731        49  MOL       C3              2.0167158070        1.0301053039        5.9099531864  SYS             49   0.00000
      1732        49  MOL       C4              0.6020338380        2.4393596655        4.4649127023  SYS             49   0.00000
      1733        49  MOL       C5             -0.0161097194        1.1049125010        7.8975866929  SYS             49   0.00000
      1734        49  MOL       H6             -1.0260446737        2.2318242465        6.5523495885  SYS             49   0.00000
      1735        49  MOL       C7              2.1871479835        0.3533893399        7.1343016901  SYS             49   0.00000
      1736        49  MOL       C8              2.9924768861        1.0249616054        4.9062966634  SYS             49   0.00000
      1737        49  MOL       C9              1.5777949171        2.4342159670        3.4612561792  SYS             49   0.00000
      1738        49  MOL       H10            -0.2116181032        2.9118331720        4.3341843316  SYS             49   0.00000
      1739        49  MOL       C11            -1.0003401918        1.1217598965        8.9349795697  SYS             49   0.00000
      1740        49  MOL       C12             1.2145698945        0.3805955731        8.1239013991  SYS             49   0.00000
      1741        49  MOL       H13             2.9883423684       -0.1341332674        7.2861152818  SYS             49   0.00000
      1742        49  MOL       H14             3.8061288273        0.5524880989        5.0370250340  SYS             49   0.00000
      1743        49  MOL       C15             2.8218918006        1.7050668953        3.6931936110  SYS             49   0.00000
      1744        49  MOL       C16             1.4073627406        3.1109319310        2.2369076756  SYS             49   0.00000
      1745        49  MOL       C17            -0.7891402527        0.4782233685       10.1073178613  SYS             49   0.00000
      1746        49  MOL       H18            -1.8150410031        1.5906190909        8.7986284734  SYS             49   0.00000
      1747        49  MOL       C19             1.3863841441       -0.2792568668        9.3777692122  SYS             49   0.00000
      1748        49  MOL       C20             3.8062549714        1.7001579787        2.6740745925  SYS             49   0.00000
      1749        49  MOL       C21             2.3799408296        3.0837256978        1.2473079666  SYS             49   0.00000
      1750        49  MOL       H22             0.6061683557        3.5984545383        2.0850940839  SYS             49   0.00000
      1751        49  MOL       C23             0.4287172958       -0.2362238773       10.3364439303  SYS             49   0.00000
      1752        49  MOL       H24            -1.4556440539        0.5014635950       10.7834506170  SYS             49   0.00000
      1753        49  MOL       H25             2.1890017679       -0.7604312028        9.5436396180  SYS             49   0.00000
      1754        49  MOL       H26             4.6205553978        1.2324970244        2.8188597772  SYS             49   0.00000
      1755        49  MOL       C27             3.6106204435        2.3594087699        1.4736226727  SYS             49   0.00000
      1756        49  MOL       C28             2.2081265800        3.7435781377       -0.0065598466  SYS             49   0.00000
      1757        49  MOL       H29             0.5671307661       -0.6813097676       11.1643902778  SYS             49   0.00000
      1758        49  MOL       C30             4.5948509158        2.3425613744        0.4362297960  SYS             49   0.00000
      1759        49  MOL       C31             3.1657934282        3.7005451482       -0.9652345647  SYS             49   0.00000
      1760        49  MOL       H32             1.4055089562        4.2247524737       -0.1724302523  SYS             49   0.00000
      1761        49  MOL       C33             4.3836509768        2.9860979024       -0.7361084957  SYS             49   0.00000
      1762        49  MOL       H34             5.4095517272        1.8737021800        0.5725808922  SYS             49   0.00000
      1763        49  MOL       H35             3.0273799580        4.1456310385       -1.7931809121  SYS             49   0.00000
      1764        49  MOL       H36             5.0501547780        2.9628576759       -1.4122412514  SYS             49   0.00000
      1765        50  MOL       C1              1.7751417819        8.3129200817       33.7916438516  SYS             50   0.00000
      1766        50  MOL       C2              0.7907786111        8.3178289982       34.8107628701  SYS             50   0.00000
      1767        50  MOL       C3              3.0192386655        7.5837710100       34.0235812834  SYS             50   0.00000
      1768        50  MOL       C4              1.6045566965        8.9930253716       32.5785407992  SYS             50   0.00000
      1769        50  MOL       C5              0.9864131390        7.6585782070       36.0112147898  SYS             50   0.00000
      1770        50  MOL       H6             -0.0235218152        8.7854899526       34.6659776854  SYS             50   0.00000
      1771        50  MOL       C7              3.1896708419        6.9070550460       35.2479297870  SYS             50   0.00000
      1772        50  MOL       C8              3.9949997445        7.5786273114       33.0199247603  SYS             50   0.00000
      1773        50  MOL       C9              2.5803177755        8.9878816730       31.5748842761  SYS             50   0.00000
      1774        50  MOL       H10             0.7909047553        9.4654988780       32.4478124285  SYS             50   0.00000
      1775        50  MOL       C11             0.0021826667        7.6754256025       37.0486076666  SYS             50   0.00000
      1776        50  MOL       C12             2.2170927529        6.9342612792       36.2375294960  SYS             50   0.00000
      1777        50  MOL       H13             3.9908652268        6.4195324387       35.3997433787  SYS             50   0.00000
      1778        50  MOL       H14             4.8086516857        7.1061538050       33.1506531309  SYS             50   0.00000
      1779        50  MOL       C15             3.8244146591        8.2587326014       31.8068217079  SYS             50   0.00000
      1780        50  MOL       C16             2.4098855991        9.6645976371       30.3505357725  SYS             50   0.00000
      1781        50  MOL       C17             0.2133826058        7.0318890746       38.2209459582  SYS             50   0.00000
      1782        50  MOL       H18            -0.8125181446        8.1442847969       36.9122565703  SYS             50   0.00000
      1783        50  MOL       C19             2.3889070026        6.2744088392       37.4913973091  SYS             50   0.00000
      1784        50  MOL       C20             4.8087778299        8.2538236848       30.7877026894  SYS             50   0.00000
      1785        50  MOL       C21             3.3824636881        9.6373914038       29.3609360635  SYS             50   0.00000
      1786        50  MOL       H22             1.6086912142       10.1521202444       30.1987221808  SYS             50   0.00000
      1787        50  MOL       C23             1.4312401543        6.3174418288       38.4500720272  SYS             50   0.00000
      1788        50  MOL       H24            -0.4531211955        7.0551293011       38.8970787140  SYS             50   0.00000
      1789        50  MOL       H25             3.1915246264        5.7932345032       37.6572677149  SYS             50   0.00000
      1790        50  MOL       H26             5.6230782562        7.7861627304       30.9324878741  SYS             50   0.00000
      1791        50  MOL       C27             4.6131433020        8.9130744760       29.5872507697  SYS             50   0.00000
      1792        50  MOL       C28             3.2106494384       10.2972438438       28.1070682504  SYS             50   0.00000
      1793        50  MOL       H29             1.5696536245        5.8723559385       39.2780183747  SYS             50   0.00000
      1794        50  MOL       C30             5.5973737743        8.8962270805       28.5498578929  SYS             50   0.00000
      1795        50  MOL       C31             4.1683162867       10.2542108542       27.1483935323  SYS             50   0.00000
      1796        50  MOL       H32             2.4080318147       10.7784181798       27.9411978446  SYS             50   0.00000
      1797        50  MOL       C33             5.3861738352        9.5397636084       27.3775196012  SYS             50   0.00000
      1798        50  MOL       H34             6.4120745857        8.4273678861       28.6862089892  SYS             50   0.00000
      1799        50  MOL       H35             4.0299028165       10.6992967445       26.3204471848  SYS             50   0.00000
      1800        50  MOL       H36             6.0526776365        9.5165233819       26.7013868455  SYS             50   0.00000
      1801        51  MOL       C1              3.3231532299        4.9818997483       17.7500076595  SYS             51   0.00000
      1802        51  MOL       C2              4.3075164007        4.9769908317       16.7308886409  SYS             51   0.00000
      1803        51  MOL       C3              2.0790563463        5.7110488200       17.5180702277  SYS             51   0.00000
      1804        51  MOL       C4              3.4937383153        4.3017944584       18.9631107118  SYS             51   0.00000
      1805        51  MOL       C5              4.1118818728        5.6362416230       15.5304367212  SYS             51   0.00000
      1806        51  MOL       H6              5.1218168270        4.5093298774       16.8756738256  SYS             51   0.00000
      1807        51  MOL       C7              1.9086241699        6.3877647840       16.2937217240  SYS             51   0.00000
      1808        51  MOL       C8              1.1032952672        5.7161925186       18.5217267507  SYS             51   0.00000
      1809        51  MOL       C9              2.5179772363        4.3069381570       19.9667672349  SYS             51   0.00000
      1810        51  MOL       H10             4.3073902565        3.8293209520       19.0938390825  SYS             51   0.00000
      1811        51  MOL       C11             5.0961123451        5.6193942275       14.4930438444  SYS             51   0.00000
      1812        51  MOL       C12             2.8812022589        6.3605585508       15.3041220150  SYS             51   0.00000
      1813        51  MOL       H13             1.1074297850        6.8752873913       16.1419081323  SYS             51   0.00000
      1814        51  MOL       H14             0.2896433261        6.1886660250       18.3909983801  SYS             51   0.00000
      1815        51  MOL       C15             1.2738803527        5.0360872286       19.7348298031  SYS             51   0.00000
      1816        51  MOL       C16             2.6884094127        3.6302221929       21.1911157385  SYS             51   0.00000
      1817        51  MOL       C17             4.8849124060        6.2629307554       13.3207055528  SYS             51   0.00000
      1818        51  MOL       H18             5.9108131564        5.1505350330       14.6293949407  SYS             51   0.00000
      1819        51  MOL       C19             2.7093880092        7.0204109908       14.0502542019  SYS             51   0.00000
      1820        51  MOL       C20             0.2895171819        5.0409961452       20.7539488216  SYS             51   0.00000
      1821        51  MOL       C21             1.7158313237        3.6574284261       22.1807154475  SYS             51   0.00000
      1822        51  MOL       H22             3.4896037976        3.1426995856       21.3429293302  SYS             51   0.00000
      1823        51  MOL       C23             3.6670548575        6.9773780012       13.0915794838  SYS             51   0.00000
      1824        51  MOL       H24             5.5514162073        6.2396905289       12.6445727971  SYS             51   0.00000
      1825        51  MOL       H25             1.9067703854        7.5015853267       13.8843837961  SYS             51   0.00000
      1826        51  MOL       H26            -0.5247832444        5.5086570996       20.6091636369  SYS             51   0.00000
      1827        51  MOL       C27             0.4851517098        4.3817453540       21.9544007413  SYS             51   0.00000
      1828        51  MOL       C28             1.8876455734        2.9975759862       23.4345832606  SYS             51   0.00000
      1829        51  MOL       H29             3.5286413872        7.4224638915       12.2636331363  SYS             51   0.00000
      1830        51  MOL       C30            -0.4990787625        4.3985927495       22.9917936181  SYS             51   0.00000
      1831        51  MOL       C31             0.9299787251        3.0406089757       24.3932579788  SYS             51   0.00000
      1832        51  MOL       H32             2.6902631971        2.5164016502       23.6004536664  SYS             51   0.00000
      1833        51  MOL       C33            -0.2878788235        3.7550562216       24.1641319098  SYS             51   0.00000
      1834        51  MOL       H34            -1.3137795739        4.8674519439       22.8554425219  SYS             51   0.00000
      1835        51  MOL       H35             1.0683921953        2.5955230855       25.2212043262  SYS             51   0.00000
      1836        51  MOL       H36            -0.9543826247        3.7782964481       24.8402646655  SYS             51   0.00000
      1837        52  MOL       C1              4.7953904851       20.3390921748       17.7500076595  SYS             52   0.00000
      1838        52  MOL       C2              5.7797536559       20.3341832582       16.7308886409  SYS             52   0.00000
      1839        52  MOL       C3              3.5512936015       21.0682412465       17.5180702277  SYS             52   0.00000
      1840        52  MOL       C4              4.9659755705       19.6589868849       18.9631107118  SYS             52   0.00000
      1841        52  MOL       C5              5.5841191280       20.9934340495       15.5304367212  SYS             52   0.00000
      1842        52  MOL       H6              6.5940540822       19.8665223039       16.8756738256  SYS             52   0.00000
      1843        52  MOL       C7              3.3808614251       21.7449572105       16.2937217240  SYS             52   0.00000
      1844        52  MOL       C8              2.5755325225       21.0733849450       18.5217267507  SYS             52   0.00000
      1845        52  MOL       C9              3.9902144915       19.6641305834       19.9667672349  SYS             52   0.00000
      1846        52  MOL       H10             5.7796275117       19.1865133785       19.0938390825  SYS             52   0.00000
      1847        52  MOL       C11             6.5683496003       20.9765866540       14.4930438444  SYS             52   0.00000
      1848        52  MOL       C12             4.3534395141       21.7177509773       15.3041220150  SYS             52   0.00000
      1849        52  MOL       H13             2.5796670402       22.2324798178       16.1419081323  SYS             52   0.00000
      1850        52  MOL       H14             1.7618805813       21.5458584515       18.3909983801  SYS             52   0.00000
      1851        52  MOL       C15             2.7461176079       20.3932796551       19.7348298031  SYS             52   0.00000
      1852        52  MOL       C16             4.1606466679       18.9874146194       21.1911157385  SYS             52   0.00000
      1853        52  MOL       C17             6.3571496612       21.6201231819       13.3207055528  SYS             52   0.00000
      1854        52  MOL       H18             7.3830504116       20.5077274595       14.6293949407  SYS             52   0.00000
      1855        52  MOL       C19             4.1816252644       22.3776034173       14.0502542019  SYS             52   0.00000
      1856        52  MOL       C20             1.7617544371       20.3981885717       20.7539488216  SYS             52   0.00000
      1857        52  MOL       C21             3.1880685789       19.0146208526       22.1807154475  SYS             52   0.00000
      1858        52  MOL       H22             4.9618410528       18.4998920121       21.3429293302  SYS             52   0.00000
      1859        52  MOL       C23             5.1392921127       22.3345704277       13.0915794838  SYS             52   0.00000
      1860        52  MOL       H24             7.0236534625       21.5968829554       12.6445727971  SYS             52   0.00000
      1861        52  MOL       H25             3.3790076406       22.8587777532       13.8843837961  SYS             52   0.00000
      1862        52  MOL       H26             0.9474540108       20.8658495260       20.6091636369  SYS             52   0.00000
      1863        52  MOL       C27             1.9573889650       19.7389377805       21.9544007413  SYS             52   0.00000
      1864        52  MOL       C28             3.3598828286       18.3547684127       23.4345832606  SYS             52   0.00000
      1865        52  MOL       H29             5.0008786425       22.7796563180       12.2636331363  SYS             52   0.00000
      1866        52  MOL       C30             0.9731584927       19.7557851760       22.9917936181  SYS             52   0.00000
      1867        52  MOL       C31             2.4022159803       18.3978014022       24.3932579788  SYS             52   0.00000
      1868        52  MOL       H32             4.1625004523       17.8735940767       23.6004536664  SYS             52   0.00000
      1869        52  MOL       C33             1.1843584317       19.1122486481       24.1641319098  SYS             52   0.00000
      1870        52  MOL       H34             0.1584576813       20.2246443704       22.8554425219  SYS             52   0.00000
      1871        52  MOL       H35             2.5406294505       17.9527155120       25.2212043262  SYS             52   0.00000
      1872        52  MOL       H36             0.5178546305       19.1354888746       24.8402646655  SYS             52   0.00000
      1873        53  MOL       C1              5.2966519143       23.6159250278       31.8068217079  SYS             53   0.00000
      1874        53  MOL       C2              6.2810150851       23.6110161113       30.7877026894  SYS             53   0.00000
      1875        53  MOL       C3              4.0525550307       24.3450740995       31.5748842761  SYS             53   0.00000
      1876        53  MOL       C4              5.4672369997       22.9358197379       33.0199247603  SYS             53   0.00000
      1877        53  MOL       C5              6.0853805572       24.2702669025       29.5872507697  SYS             53   0.00000
      1878        53  MOL       H6              7.0953155114       23.1433551569       30.9324878741  SYS             53   0.00000
      1879        53  MOL       C7              3.8821228543       25.0217900635       30.3505357725  SYS             53   0.00000
      1880        53  MOL       C8              3.0767939517       24.3502177981       32.5785407992  SYS             53   0.00000
      1881        53  MOL       C9              4.4914759207       22.9409634365       34.0235812834  SYS             53   0.00000
      1882        53  MOL       H10             6.2808889409       22.4633462315       33.1506531309  SYS             53   0.00000
      1883        53  MOL       C11             7.0696110295       24.2534195070       28.5498578929  SYS             53   0.00000
      1884        53  MOL       C12             4.8547009433       24.9945838303       29.3609360635  SYS             53   0.00000
      1885        53  MOL       H13             3.0809284694       25.5093126709       30.1987221808  SYS             53   0.00000
      1886        53  MOL       H14             2.2631420105       24.8226913045       32.4478124285  SYS             53   0.00000
      1887        53  MOL       C15             3.2473790371       23.6701125082       33.7916438516  SYS             53   0.00000
      1888        53  MOL       C16             4.6619080971       22.2642474725       35.2479297870  SYS             53   0.00000
      1889        53  MOL       C17             6.8584110905       24.8969560349       27.3775196012  SYS             53   0.00000
      1890        53  MOL       H18             7.8843118409       23.7845603126       28.6862089892  SYS             53   0.00000
      1891        53  MOL       C19             4.6828866936       25.6544362703       28.1070682504  SYS             53   0.00000
      1892        53  MOL       C20             2.2630158663       23.6750214247       34.8107628701  SYS             53   0.00000
      1893        53  MOL       C21             3.6893300081       22.2914537057       36.2375294960  SYS             53   0.00000
      1894        53  MOL       H22             5.4631024820       21.7767248651       35.3997433787  SYS             53   0.00000
      1895        53  MOL       C23             5.6405535419       25.6114032807       27.1483935323  SYS             53   0.00000
      1896        53  MOL       H24             7.5249148917       24.8737158084       26.7013868455  SYS             53   0.00000
      1897        53  MOL       H25             3.8802690699       26.1356106063       27.9411978446  SYS             53   0.00000
      1898        53  MOL       H26             1.4487154400       24.1426823791       34.6659776854  SYS             53   0.00000
      1899        53  MOL       C27             2.4586503942       23.0157706335       36.0112147898  SYS             53   0.00000
      1900        53  MOL       C28             3.8611442578       21.6316012657       37.4913973091  SYS             53   0.00000
      1901        53  MOL       H29             5.5021400717       26.0564891710       26.3204471848  SYS             53   0.00000
      1902        53  MOL       C30             1.4744199219       23.0326180290       37.0486076666  SYS             53   0.00000
      1903        53  MOL       C31             2.9034774095       21.6746342553       38.4500720272  SYS             53   0.00000
      1904        53  MOL       H32             4.6637618816       21.1504269297       37.6572677149  SYS             53   0.00000
      1905        53  MOL       C33             1.6856198610       22.3890815011       38.2209459582  SYS             53   0.00000
      1906        53  MOL       H34             0.6597191106       23.5014772234       36.9122565703  SYS             53   0.00000
      1907        53  MOL       H35             3.0418908797       21.2295483650       39.2780183747  SYS             53   0.00000
      1908        53  MOL       H36             1.0191160597       22.4123217276       38.8970787140  SYS             53   0.00000
      1909        54  MOL       C1              2.2448561787       17.1164468021        5.6780157546  SYS             54   0.00000
      1910        54  MOL       C2              1.2604930079       17.1213557187        6.6971347732  SYS             54   0.00000
      1911        54  MOL       C3              3.4889530622       16.3872977304        5.9099531864  SYS             54   0.00000
      1912        54  MOL       C4              2.0742710932       17.7965520920        4.4649127023  SYS             54   0.00000
      1913        54  MOL       C5              1.4561275358       16.4621049274        7.8975866929  SYS             54   0.00000
      1914        54  MOL       H6              0.4461925815       17.5890166730        6.5523495885  SYS             54   0.00000
      1915        54  MOL       C7              3.6593852387       15.7105817664        7.1343016901  SYS             54   0.00000
      1916        54  MOL       C8              4.4647141413       16.3821540319        4.9062966634  SYS             54   0.00000
      1917        54  MOL       C9              3.0500321723       17.7914083935        3.4612561792  SYS             54   0.00000
      1918        54  MOL       H10             1.2606191520       18.2690255985        4.3341843316  SYS             54   0.00000
      1919        54  MOL       C11             0.4718970635       16.4789523230        8.9349795697  SYS             54   0.00000
      1920        54  MOL       C12             2.6868071497       15.7377879996        8.1239013991  SYS             54   0.00000
      1921        54  MOL       H13             4.4605796236       15.2230591591        7.2861152818  SYS             54   0.00000
      1922        54  MOL       H14             5.2783660825       15.9096805254        5.0370250340  SYS             54   0.00000
      1923        54  MOL       C15             4.2941290558       17.0622593218        3.6931936110  SYS             54   0.00000
      1924        54  MOL       C16             2.8795999958       18.4681243575        2.2369076756  SYS             54   0.00000
      1925        54  MOL       C17             0.6830970025       15.8354157950       10.1073178613  SYS             54   0.00000
      1926        54  MOL       H18            -0.3428037479       16.9478115174        8.7986284734  SYS             54   0.00000
      1927        54  MOL       C19             2.8586213993       15.0779355596        9.3777692122  SYS             54   0.00000
      1928        54  MOL       C20             5.2784922266       17.0573504052        2.6740745925  SYS             54   0.00000
      1929        54  MOL       C21             3.8521780848       18.4409181243        1.2473079666  SYS             54   0.00000
      1930        54  MOL       H22             2.0784056109       18.9556469648        2.0850940839  SYS             54   0.00000
      1931        54  MOL       C23             1.9009545511       15.1209685492       10.3364439303  SYS             54   0.00000
      1932        54  MOL       H24             0.0165932013       15.8586560215       10.7834506170  SYS             54   0.00000
      1933        54  MOL       H25             3.6612390231       14.5967612237        9.5436396180  SYS             54   0.00000
      1934        54  MOL       H26             6.0927926530       16.5896894509        2.8188597772  SYS             54   0.00000
      1935        54  MOL       C27             5.0828576987       17.7166011964        1.4736226727  SYS             54   0.00000
      1936        54  MOL       C28             3.6803638352       19.1007705642       -0.0065598466  SYS             54   0.00000
      1937        54  MOL       H29             2.0393680213       14.6758826589       11.1643902778  SYS             54   0.00000
      1938        54  MOL       C30             6.0670881711       17.6997538009        0.4362297960  SYS             54   0.00000
      1939        54  MOL       C31             4.6380306835       19.0577375747       -0.9652345647  SYS             54   0.00000
      1940        54  MOL       H32             2.8777462114       19.5819449002       -0.1724302523  SYS             54   0.00000
      1941        54  MOL       C33             5.8558882320       18.3432903289       -0.7361084957  SYS             54   0.00000
      1942        54  MOL       H34             6.8817889824       17.2308946065        0.5725808922  SYS             54   0.00000
      1943        54  MOL       H35             4.4996172132       19.5028234649       -1.7931809121  SYS             54   0.00000
      1944        54  MOL       H36             6.5223920332       18.3200501024       -1.4122412514  SYS             54   0.00000
       18.8259000000       23.1414000000       43.3272000000       76.7520000000       88.0110000000       84.5240000000
