default_name
 17640
   7.2950000   7.2580000   9.4220000   8.0320000   6.2080000   9.9910000
   6.8960000   8.3000000  10.3120000   6.9170000   7.3200000   8.0150000
   8.3340000   6.2140000  11.3670000   8.3620000   5.3940000   9.3710000
   7.1570000   8.2750000  11.7090000   6.1590000   9.3420000   9.7480000
   6.1870000   8.3880000   7.5150000   7.3470000   6.2640000   7.1450000
   7.8750000   7.2060000  12.1730000   8.9420000   5.4160000  11.7930000
   6.8060000   9.0430000  12.3790000   5.8490000   9.4310000   8.4180000
   5.8010000  10.1380000  10.4020000   5.8340000   8.4010000   6.1300000
   6.9880000   6.2460000   5.7860000   7.9560000   5.4690000   7.5380000
   8.0860000   7.1520000  13.2210000   5.3390000  10.3170000   8.0520000
   6.2330000   7.3570000   5.3070000   5.0920000   9.4640000   5.5900000
   7.2780000   5.4270000   5.1310000   5.8280000   7.3830000   3.8850000
   4.7310000   9.5040000   4.2730000   4.7910000  10.2670000   6.2380000
   5.0720000   8.4480000   3.3790000   6.1780000   6.3800000   2.9990000
   4.1610000  10.3490000   3.9100000   4.6550000   8.5280000   2.0380000
   5.7620000   6.4420000   1.6540000   6.7930000   5.5560000   3.3310000
   5.0160000   7.5050000   1.2080000   4.0740000   9.3650000   1.6770000
   6.0210000   5.6410000   0.9810000   4.7170000   7.5370000   0.1760000
   7.1870000   7.2580000  22.9370000   7.9230000   6.2080000  23.5060000
   6.7880000   8.3000000  23.8260000   6.8090000   7.3200000  21.5300000
   8.2250000   6.2140000  24.8820000   8.2530000   5.3940000  22.8860000
   7.0490000   8.2750000  25.2240000   6.0500000   9.3420000  23.2630000
   6.0780000   8.3880000  21.0300000   7.2380000   6.2640000  20.6600000
   7.7670000   7.2060000  25.6870000   8.8330000   5.4160000  25.3070000
   6.6970000   9.0430000  25.8940000   5.7400000   9.4310000  21.9330000
   5.6920000  10.1380000  23.9170000   5.7260000   8.4010000  19.6450000
   6.8790000   6.2460000  19.3000000   7.8470000   5.4690000  21.0530000
   7.9770000   7.1520000  26.7360000   5.2300000  10.3170000  21.5670000
   6.1250000   7.3570000  18.8220000   4.9840000   9.4640000  19.1040000
   7.1690000   5.4270000  18.6460000   5.7200000   7.3830000  17.4000000
   4.6230000   9.5040000  17.7880000   4.6830000  10.2670000  19.7530000
   4.9630000   8.4480000  16.8930000   6.0700000   6.3800000  16.5130000
   4.0530000  10.3490000  17.4240000   4.5470000   8.5280000  15.5530000
   5.6530000   6.4420000  15.1690000   6.6840000   5.5560000  16.8460000
   4.9070000   7.5050000  14.7230000   3.9650000   9.3650000  15.1920000
   5.9120000   5.6410000  14.4960000   4.6080000   7.5370000  13.6900000
   7.0780000   7.2580000  36.4510000   7.8150000   6.2080000  37.0200000
   6.6790000   8.3000000  37.3410000   6.7000000   7.3200000  35.0450000
   8.1170000   6.2140000  38.3960000   8.1450000   5.3940000  36.4000000
   6.9400000   8.2750000  38.7380000   5.9420000   9.3420000  36.7770000
   5.9700000   8.3880000  34.5450000   7.1300000   6.2640000  34.1740000
   7.6580000   7.2060000  39.2020000   8.7250000   5.4160000  38.8220000
   6.5890000   9.0430000  39.4080000   5.6320000   9.4310000  35.4470000
   5.5840000  10.1380000  37.4310000   5.6170000   8.4010000  33.1590000
   6.7710000   6.2460000  32.8150000   7.7390000   5.4690000  34.5680000
   7.8690000   7.1520000  40.2500000   5.1220000  10.3170000  35.0810000
   6.0160000   7.3570000  32.3360000   4.8750000   9.4640000  32.6190000
   7.0610000   5.4270000  32.1610000   5.6110000   7.3830000  30.9150000
   4.5140000   9.5040000  31.3020000   4.5740000  10.2670000  33.2670000
   4.8550000   8.4480000  30.4080000   5.9610000   6.3800000  30.0280000
   3.9440000  10.3490000  30.9390000   4.4380000   8.5280000  29.0670000
   5.5450000   6.4420000  28.6830000   6.5760000   5.5560000  30.3600000
   4.7990000   7.5050000  28.2370000   3.8570000   9.3650000  28.7060000
   5.8040000   5.6410000  28.0100000   4.5000000   7.5370000  27.2050000
   6.9700000   7.2580000  49.9660000   7.7060000   6.2080000  50.5350000
   6.5710000   8.3000000  50.8550000   6.5920000   7.3200000  48.5590000
   8.0080000   6.2140000  51.9110000   8.0360000   5.3940000  49.9150000
   6.8320000   8.2750000  52.2530000   5.8330000   9.3420000  50.2920000
   5.8610000   8.3880000  48.0590000   7.0210000   6.2640000  47.6890000
   7.5500000   7.2060000  52.7160000   8.6160000   5.4160000  52.3370000
   6.4800000   9.0430000  52.9230000   5.5230000   9.4310000  48.9620000
   5.4750000  10.1380000  50.9460000   5.5090000   8.4010000  46.6740000
   6.6620000   6.2460000  46.3290000   7.6300000   5.4690000  48.0820000
   7.7600000   7.1520000  53.7650000   5.0130000  10.3170000  48.5960000
   5.9080000   7.3570000  45.8510000   4.7670000   9.4640000  46.1330000
   6.9520000   5.4270000  45.6750000   5.5030000   7.3830000  44.4290000
   4.4060000   9.5040000  44.8170000   4.4660000  10.2670000  46.7820000
   4.7460000   8.4480000  43.9220000   5.8530000   6.3800000  43.5430000
   3.8360000  10.3490000  44.4530000   4.3300000   8.5280000  42.5820000
   5.4360000   6.4420000  42.1980000   6.4670000   5.5560000  43.8750000
   4.6900000   7.5050000  41.7520000   3.7480000   9.3650000  42.2210000
   5.6950000   5.6410000  41.5250000   4.3910000   7.5370000  40.7190000
   6.8610000   7.2580000  63.4810000   7.5980000   6.2080000  64.0500000
   6.4620000   8.3000000  64.3700000   6.4830000   7.3200000  62.0740000
   7.9000000   6.2140000  65.4250000   7.9270000   5.3940000  63.4290000
   6.7230000   8.2750000  65.7670000   5.7250000   9.3420000  63.8060000
   5.7530000   8.3880000  61.5740000   6.9130000   6.2640000  61.2030000
   7.4410000   7.2060000  66.2310000   8.5080000   5.4160000  65.8510000
   6.3720000   9.0430000  66.4380000   5.4150000   9.4310000  62.4760000
   5.3670000  10.1380000  64.4600000   5.4000000   8.4010000  60.1880000
   6.5540000   6.2460000  59.8440000   7.5220000   5.4690000  61.5970000
   7.6520000   7.1520000  67.2800000   4.9050000  10.3170000  62.1100000
   5.7990000   7.3570000  59.3650000   4.6580000   9.4640000  59.6480000
   6.8440000   5.4270000  59.1900000   5.3940000   7.3830000  57.9440000
   4.2970000   9.5040000  58.3320000   4.3570000  10.2670000  60.2970000
   4.6380000   8.4480000  57.4370000   5.7440000   6.3800000  57.0570000
   3.7270000  10.3490000  57.9680000   4.2210000   8.5280000  56.0960000
   5.3280000   6.4420000  55.7120000   6.3590000   5.5560000  57.3900000
   4.5820000   7.5050000  55.2660000   3.6400000   9.3650000  55.7350000
   5.5870000   5.6410000  55.0390000   4.2830000   7.5370000  54.2340000
   7.2950000  13.4120000   9.4220000   8.0320000  12.3620000   9.9910000
   6.8960000  14.4540000  10.3120000   6.9170000  13.4740000   8.0150000
   8.3340000  12.3680000  11.3670000   8.3620000  11.5480000   9.3710000
   7.1570000  14.4290000  11.7090000   6.1590000  15.4960000   9.7480000
   6.1870000  14.5420000   7.5150000   7.3470000  12.4180000   7.1450000
   7.8750000  13.3600000  12.1730000   8.9420000  11.5700000  11.7930000
   6.8060000  15.1970000  12.3790000   5.8490000  15.5850000   8.4180000
   5.8010000  16.2920000  10.4020000   5.8340000  14.5550000   6.1300000
   6.9880000  12.4000000   5.7860000   7.9560000  11.6230000   7.5380000
   8.0860000  13.3060000  13.2210000   5.3390000  16.4710000   8.0520000
   6.2330000  13.5110000   5.3070000   5.0920000  15.6180000   5.5900000
   7.2780000  11.5810000   5.1310000   5.8280000  13.5370000   3.8850000
   4.7310000  15.6580000   4.2730000   4.7910000  16.4210000   6.2380000
   5.0720000  14.6020000   3.3790000   6.1780000  12.5340000   2.9990000
   4.1610000  16.5030000   3.9100000   4.6550000  14.6820000   2.0380000
   5.7620000  12.5960000   1.6540000   6.7930000  11.7100000   3.3310000
   5.0160000  13.6590000   1.2080000   4.0740000  15.5190000   1.6770000
   6.0210000  11.7950000   0.9810000   4.7170000  13.6910000   0.1760000
   7.1870000  13.4120000  22.9370000   7.9230000  12.3620000  23.5060000
   6.7880000  14.4540000  23.8260000   6.8090000  13.4740000  21.5300000
   8.2250000  12.3680000  24.8820000   8.2530000  11.5480000  22.8860000
   7.0490000  14.4290000  25.2240000   6.0500000  15.4960000  23.2630000
   6.0780000  14.5420000  21.0300000   7.2380000  12.4180000  20.6600000
   7.7670000  13.3600000  25.6870000   8.8330000  11.5700000  25.3070000
   6.6970000  15.1970000  25.8940000   5.7400000  15.5850000  21.9330000
   5.6920000  16.2920000  23.9170000   5.7260000  14.5550000  19.6450000
   6.8790000  12.4000000  19.3000000   7.8470000  11.6230000  21.0530000
   7.9770000  13.3060000  26.7360000   5.2300000  16.4710000  21.5670000
   6.1250000  13.5110000  18.8220000   4.9840000  15.6180000  19.1040000
   7.1690000  11.5810000  18.6460000   5.7200000  13.5370000  17.4000000
   4.6230000  15.6580000  17.7880000   4.6830000  16.4210000  19.7530000
   4.9630000  14.6020000  16.8930000   6.0700000  12.5340000  16.5130000
   4.0530000  16.5030000  17.4240000   4.5470000  14.6820000  15.5530000
   5.6530000  12.5960000  15.1690000   6.6840000  11.7100000  16.8460000
   4.9070000  13.6590000  14.7230000   3.9650000  15.5190000  15.1920000
   5.9120000  11.7950000  14.4960000   4.6080000  13.6910000  13.6900000
   7.0780000  13.4120000  36.4510000   7.8150000  12.3620000  37.0200000
   6.6790000  14.4540000  37.3410000   6.7000000  13.4740000  35.0450000
   8.1170000  12.3680000  38.3960000   8.1450000  11.5480000  36.4000000
   6.9400000  14.4290000  38.7380000   5.9420000  15.4960000  36.7770000
   5.9700000  14.5420000  34.5450000   7.1300000  12.4180000  34.1740000
   7.6580000  13.3600000  39.2020000   8.7250000  11.5700000  38.8220000
   6.5890000  15.1970000  39.4080000   5.6320000  15.5850000  35.4470000
   5.5840000  16.2920000  37.4310000   5.6170000  14.5550000  33.1590000
   6.7710000  12.4000000  32.8150000   7.7390000  11.6230000  34.5680000
   7.8690000  13.3060000  40.2500000   5.1220000  16.4710000  35.0810000
   6.0160000  13.5110000  32.3360000   4.8750000  15.6180000  32.6190000
   7.0610000  11.5810000  32.1610000   5.6110000  13.5370000  30.9150000
   4.5140000  15.6580000  31.3020000   4.5740000  16.4210000  33.2670000
   4.8550000  14.6020000  30.4080000   5.9610000  12.5340000  30.0280000
   3.9440000  16.5030000  30.9390000   4.4380000  14.6820000  29.0670000
   5.5450000  12.5960000  28.6830000   6.5760000  11.7100000  30.3600000
   4.7990000  13.6590000  28.2370000   3.8570000  15.5190000  28.7060000
   5.8040000  11.7950000  28.0100000   4.5000000  13.6910000  27.2050000
   6.9700000  13.4120000  49.9660000   7.7060000  12.3620000  50.5350000
   6.5710000  14.4540000  50.8550000   6.5920000  13.4740000  48.5590000
   8.0080000  12.3680000  51.9110000   8.0360000  11.5480000  49.9150000
   6.8320000  14.4290000  52.2530000   5.8330000  15.4960000  50.2920000
   5.8610000  14.5420000  48.0590000   7.0210000  12.4180000  47.6890000
   7.5500000  13.3600000  52.7160000   8.6160000  11.5700000  52.3370000
   6.4800000  15.1970000  52.9230000   5.5230000  15.5850000  48.9620000
   5.4750000  16.2920000  50.9460000   5.5090000  14.5550000  46.6740000
   6.6620000  12.4000000  46.3290000   7.6300000  11.6230000  48.0820000
   7.7600000  13.3060000  53.7650000   5.0130000  16.4710000  48.5960000
   5.9080000  13.5110000  45.8510000   4.7670000  15.6180000  46.1330000
   6.9520000  11.5810000  45.6750000   5.5030000  13.5370000  44.4290000
   4.4060000  15.6580000  44.8170000   4.4660000  16.4210000  46.7820000
   4.7460000  14.6020000  43.9220000   5.8530000  12.5340000  43.5430000
   3.8360000  16.5030000  44.4530000   4.3300000  14.6820000  42.5820000
   5.4360000  12.5960000  42.1980000   6.4670000  11.7100000  43.8750000
   4.6900000  13.6590000  41.7520000   3.7480000  15.5190000  42.2210000
   5.6950000  11.7950000  41.5250000   4.3910000  13.6910000  40.7190000
   6.8610000  13.4120000  63.4810000   7.5980000  12.3620000  64.0500000
   6.4620000  14.4540000  64.3700000   6.4830000  13.4740000  62.0740000
   7.9000000  12.3680000  65.4250000   7.9270000  11.5480000  63.4290000
   6.7230000  14.4290000  65.7670000   5.7250000  15.4960000  63.8060000
   5.7530000  14.5420000  61.5740000   6.9130000  12.4180000  61.2030000
   7.4410000  13.3600000  66.2310000   8.5080000  11.5700000  65.8510000
   6.3720000  15.1970000  66.4380000   5.4150000  15.5850000  62.4760000
   5.3670000  16.2920000  64.4600000   5.4000000  14.5550000  60.1880000
   6.5540000  12.4000000  59.8440000   7.5220000  11.6230000  61.5970000
   7.6520000  13.3060000  67.2800000   4.9050000  16.4710000  62.1100000
   5.7990000  13.5110000  59.3650000   4.6580000  15.6180000  59.6480000
   6.8440000  11.5810000  59.1900000   5.3940000  13.5370000  57.9440000
   4.2970000  15.6580000  58.3320000   4.3570000  16.4210000  60.2970000
   4.6380000  14.6020000  57.4370000   5.7440000  12.5340000  57.0570000
   3.7270000  16.5030000  57.9680000   4.2210000  14.6820000  56.0960000
   5.3280000  12.5960000  55.7120000   6.3590000  11.7100000  57.3900000
   4.5820000  13.6590000  55.2660000   3.6400000  15.5190000  55.7350000
   5.5870000  11.7950000  55.0390000   4.2830000  13.6910000  54.2340000
   7.2950000  19.5660000   9.4220000   8.0320000  18.5160000   9.9910000
   6.8960000  20.6080000  10.3120000   6.9170000  19.6280000   8.0150000
   8.3340000  18.5220000  11.3670000   8.3620000  17.7020000   9.3710000
   7.1570000  20.5830000  11.7090000   6.1590000  21.6500000   9.7480000
   6.1870000  20.6960000   7.5150000   7.3470000  18.5720000   7.1450000
   7.8750000  19.5140000  12.1730000   8.9420000  17.7240000  11.7930000
   6.8060000  21.3510000  12.3790000   5.8490000  21.7390000   8.4180000
   5.8010000  22.4460000  10.4020000   5.8340000  20.7090000   6.1300000
   6.9880000  18.5540000   5.7860000   7.9560000  17.7770000   7.5380000
   8.0860000  19.4600000  13.2210000   5.3390000  22.6250000   8.0520000
   6.2330000  19.6650000   5.3070000   5.0920000  21.7720000   5.5900000
   7.2780000  17.7350000   5.1310000   5.8280000  19.6910000   3.8850000
   4.7310000  21.8120000   4.2730000   4.7910000  22.5750000   6.2380000
   5.0720000  20.7560000   3.3790000   6.1780000  18.6880000   2.9990000
   4.1610000  22.6570000   3.9100000   4.6550000  20.8360000   2.0380000
   5.7620000  18.7500000   1.6540000   6.7930000  17.8640000   3.3310000
   5.0160000  19.8130000   1.2080000   4.0740000  21.6730000   1.6770000
   6.0210000  17.9490000   0.9810000   4.7170000  19.8450000   0.1760000
   7.1870000  19.5660000  22.9370000   7.9230000  18.5160000  23.5060000
   6.7880000  20.6080000  23.8260000   6.8090000  19.6280000  21.5300000
   8.2250000  18.5220000  24.8820000   8.2530000  17.7020000  22.8860000
   7.0490000  20.5830000  25.2240000   6.0500000  21.6500000  23.2630000
   6.0780000  20.6960000  21.0300000   7.2380000  18.5720000  20.6600000
   7.7670000  19.5140000  25.6870000   8.8330000  17.7240000  25.3070000
   6.6970000  21.3510000  25.8940000   5.7400000  21.7390000  21.9330000
   5.6920000  22.4460000  23.9170000   5.7260000  20.7090000  19.6450000
   6.8790000  18.5540000  19.3000000   7.8470000  17.7770000  21.0530000
   7.9770000  19.4600000  26.7360000   5.2300000  22.6250000  21.5670000
   6.1250000  19.6650000  18.8220000   4.9840000  21.7720000  19.1040000
   7.1690000  17.7350000  18.6460000   5.7200000  19.6910000  17.4000000
   4.6230000  21.8120000  17.7880000   4.6830000  22.5750000  19.7530000
   4.9630000  20.7560000  16.8930000   6.0700000  18.6880000  16.5130000
   4.0530000  22.6570000  17.4240000   4.5470000  20.8360000  15.5530000
   5.6530000  18.7500000  15.1690000   6.6840000  17.8640000  16.8460000
   4.9070000  19.8130000  14.7230000   3.9650000  21.6730000  15.1920000
   5.9120000  17.9490000  14.4960000   4.6080000  19.8450000  13.6900000
   7.0780000  19.5660000  36.4510000   7.8150000  18.5160000  37.0200000
   6.6790000  20.6080000  37.3410000   6.7000000  19.6280000  35.0450000
   8.1170000  18.5220000  38.3960000   8.1450000  17.7020000  36.4000000
   6.9400000  20.5830000  38.7380000   5.9420000  21.6500000  36.7770000
   5.9700000  20.6960000  34.5450000   7.1300000  18.5720000  34.1740000
   7.6580000  19.5140000  39.2020000   8.7250000  17.7240000  38.8220000
   6.5890000  21.3510000  39.4080000   5.6320000  21.7390000  35.4470000
   5.5840000  22.4460000  37.4310000   5.6170000  20.7090000  33.1590000
   6.7710000  18.5540000  32.8150000   7.7390000  17.7770000  34.5680000
   7.8690000  19.4600000  40.2500000   5.1220000  22.6250000  35.0810000
   6.0160000  19.6650000  32.3360000   4.8750000  21.7720000  32.6190000
   7.0610000  17.7350000  32.1610000   5.6110000  19.6910000  30.9150000
   4.5140000  21.8120000  31.3020000   4.5740000  22.5750000  33.2670000
   4.8550000  20.7560000  30.4080000   5.9610000  18.6880000  30.0280000
   3.9440000  22.6570000  30.9390000   4.4380000  20.8360000  29.0670000
   5.5450000  18.7500000  28.6830000   6.5760000  17.8640000  30.3600000
   4.7990000  19.8130000  28.2370000   3.8570000  21.6730000  28.7060000
   5.8040000  17.9490000  28.0100000   4.5000000  19.8450000  27.2050000
   6.9700000  19.5660000  49.9660000   7.7060000  18.5160000  50.5350000
   6.5710000  20.6080000  50.8550000   6.5920000  19.6280000  48.5590000
   8.0080000  18.5220000  51.9110000   8.0360000  17.7020000  49.9150000
   6.8320000  20.5830000  52.2530000   5.8330000  21.6500000  50.2920000
   5.8610000  20.6960000  48.0590000   7.0210000  18.5720000  47.6890000
   7.5500000  19.5140000  52.7160000   8.6160000  17.7240000  52.3370000
   6.4800000  21.3510000  52.9230000   5.5230000  21.7390000  48.9620000
   5.4750000  22.4460000  50.9460000   5.5090000  20.7090000  46.6740000
   6.6620000  18.5540000  46.3290000   7.6300000  17.7770000  48.0820000
   7.7600000  19.4600000  53.7650000   5.0130000  22.6250000  48.5960000
   5.9080000  19.6650000  45.8510000   4.7670000  21.7720000  46.1330000
   6.9520000  17.7350000  45.6750000   5.5030000  19.6910000  44.4290000
   4.4060000  21.8120000  44.8170000   4.4660000  22.5750000  46.7820000
   4.7460000  20.7560000  43.9220000   5.8530000  18.6880000  43.5430000
   3.8360000  22.6570000  44.4530000   4.3300000  20.8360000  42.5820000
   5.4360000  18.7500000  42.1980000   6.4670000  17.8640000  43.8750000
   4.6900000  19.8130000  41.7520000   3.7480000  21.6730000  42.2210000
   5.6950000  17.9490000  41.5250000   4.3910000  19.8450000  40.7190000
   6.8610000  19.5660000  63.4810000   7.5980000  18.5160000  64.0500000
   6.4620000  20.6080000  64.3700000   6.4830000  19.6280000  62.0740000
   7.9000000  18.5220000  65.4250000   7.9270000  17.7020000  63.4290000
   6.7230000  20.5830000  65.7670000   5.7250000  21.6500000  63.8060000
   5.7530000  20.6960000  61.5740000   6.9130000  18.5720000  61.2030000
   7.4410000  19.5140000  66.2310000   8.5080000  17.7240000  65.8510000
   6.3720000  21.3510000  66.4380000   5.4150000  21.7390000  62.4760000
   5.3670000  22.4460000  64.4600000   5.4000000  20.7090000  60.1880000
   6.5540000  18.5540000  59.8440000   7.5220000  17.7770000  61.5970000
   7.6520000  19.4600000  67.2800000   4.9050000  22.6250000  62.1100000
   5.7990000  19.6650000  59.3650000   4.6580000  21.7720000  59.6480000
   6.8440000  17.7350000  59.1900000   5.3940000  19.6910000  57.9440000
   4.2970000  21.8120000  58.3320000   4.3570000  22.5750000  60.2970000
   4.6380000  20.7560000  57.4370000   5.7440000  18.6880000  57.0570000
   3.7270000  22.6570000  57.9680000   4.2210000  20.8360000  56.0960000
   5.3280000  18.7500000  55.7120000   6.3590000  17.8640000  57.3900000
   4.5820000  19.8130000  55.2660000   3.6400000  21.6730000  55.7350000
   5.5870000  17.9490000  55.0390000   4.2830000  19.8450000  54.2340000
   7.2950000  25.7200000   9.4220000   8.0320000  24.6700000   9.9910000
   6.8960000  26.7620000  10.3120000   6.9170000  25.7820000   8.0150000
   8.3340000  24.6760000  11.3670000   8.3620000  23.8560000   9.3710000
   7.1570000  26.7370000  11.7090000   6.1590000  27.8040000   9.7480000
   6.1870000  26.8500000   7.5150000   7.3470000  24.7260000   7.1450000
   7.8750000  25.6680000  12.1730000   8.9420000  23.8780000  11.7930000
   6.8060000  27.5050000  12.3790000   5.8490000  27.8930000   8.4180000
   5.8010000  28.6000000  10.4020000   5.8340000  26.8630000   6.1300000
   6.9880000  24.7080000   5.7860000   7.9560000  23.9310000   7.5380000
   8.0860000  25.6140000  13.2210000   5.3390000  28.7790000   8.0520000
   6.2330000  25.8190000   5.3070000   5.0920000  27.9260000   5.5900000
   7.2780000  23.8890000   5.1310000   5.8280000  25.8450000   3.8850000
   4.7310000  27.9660000   4.2730000   4.7910000  28.7290000   6.2380000
   5.0720000  26.9100000   3.3790000   6.1780000  24.8420000   2.9990000
   4.1610000  28.8110000   3.9100000   4.6550000  26.9900000   2.0380000
   5.7620000  24.9040000   1.6540000   6.7930000  24.0180000   3.3310000
   5.0160000  25.9670000   1.2080000   4.0740000  27.8270000   1.6770000
   6.0210000  24.1030000   0.9810000   4.7170000  25.9990000   0.1760000
   7.1870000  25.7200000  22.9370000   7.9230000  24.6700000  23.5060000
   6.7880000  26.7620000  23.8260000   6.8090000  25.7820000  21.5300000
   8.2250000  24.6760000  24.8820000   8.2530000  23.8560000  22.8860000
   7.0490000  26.7370000  25.2240000   6.0500000  27.8040000  23.2630000
   6.0780000  26.8500000  21.0300000   7.2380000  24.7260000  20.6600000
   7.7670000  25.6680000  25.6870000   8.8330000  23.8780000  25.3070000
   6.6970000  27.5050000  25.8940000   5.7400000  27.8930000  21.9330000
   5.6920000  28.6000000  23.9170000   5.7260000  26.8630000  19.6450000
   6.8790000  24.7080000  19.3000000   7.8470000  23.9310000  21.0530000
   7.9770000  25.6140000  26.7360000   5.2300000  28.7790000  21.5670000
   6.1250000  25.8190000  18.8220000   4.9840000  27.9260000  19.1040000
   7.1690000  23.8890000  18.6460000   5.7200000  25.8450000  17.4000000
   4.6230000  27.9660000  17.7880000   4.6830000  28.7290000  19.7530000
   4.9630000  26.9100000  16.8930000   6.0700000  24.8420000  16.5130000
   4.0530000  28.8110000  17.4240000   4.5470000  26.9900000  15.5530000
   5.6530000  24.9040000  15.1690000   6.6840000  24.0180000  16.8460000
   4.9070000  25.9670000  14.7230000   3.9650000  27.8270000  15.1920000
   5.9120000  24.1030000  14.4960000   4.6080000  25.9990000  13.6900000
   7.0780000  25.7200000  36.4510000   7.8150000  24.6700000  37.0200000
   6.6790000  26.7620000  37.3410000   6.7000000  25.7820000  35.0450000
   8.1170000  24.6760000  38.3960000   8.1450000  23.8560000  36.4000000
   6.9400000  26.7370000  38.7380000   5.9420000  27.8040000  36.7770000
   5.9700000  26.8500000  34.5450000   7.1300000  24.7260000  34.1740000
   7.6580000  25.6680000  39.2020000   8.7250000  23.8780000  38.8220000
   6.5890000  27.5050000  39.4080000   5.6320000  27.8930000  35.4470000
   5.5840000  28.6000000  37.4310000   5.6170000  26.8630000  33.1590000
   6.7710000  24.7080000  32.8150000   7.7390000  23.9310000  34.5680000
   7.8690000  25.6140000  40.2500000   5.1220000  28.7790000  35.0810000
   6.0160000  25.8190000  32.3360000   4.8750000  27.9260000  32.6190000
   7.0610000  23.8890000  32.1610000   5.6110000  25.8450000  30.9150000
   4.5140000  27.9660000  31.3020000   4.5740000  28.7290000  33.2670000
   4.8550000  26.9100000  30.4080000   5.9610000  24.8420000  30.0280000
   3.9440000  28.8110000  30.9390000   4.4380000  26.9900000  29.0670000
   5.5450000  24.9040000  28.6830000   6.5760000  24.0180000  30.3600000
   4.7990000  25.9670000  28.2370000   3.8570000  27.8270000  28.7060000
   5.8040000  24.1030000  28.0100000   4.5000000  25.9990000  27.2050000
   6.9700000  25.7200000  49.9660000   7.7060000  24.6700000  50.5350000
   6.5710000  26.7620000  50.8550000   6.5920000  25.7820000  48.5590000
   8.0080000  24.6760000  51.9110000   8.0360000  23.8560000  49.9150000
   6.8320000  26.7370000  52.2530000   5.8330000  27.8040000  50.2920000
   5.8610000  26.8500000  48.0590000   7.0210000  24.7260000  47.6890000
   7.5500000  25.6680000  52.7160000   8.6160000  23.8780000  52.3370000
   6.4800000  27.5050000  52.9230000   5.5230000  27.8930000  48.9620000
   5.4750000  28.6000000  50.9460000   5.5090000  26.8630000  46.6740000
   6.6620000  24.7080000  46.3290000   7.6300000  23.9310000  48.0820000
   7.7600000  25.6140000  53.7650000   5.0130000  28.7790000  48.5960000
   5.9080000  25.8190000  45.8510000   4.7670000  27.9260000  46.1330000
   6.9520000  23.8890000  45.6750000   5.5030000  25.8450000  44.4290000
   4.4060000  27.9660000  44.8170000   4.4660000  28.7290000  46.7820000
   4.7460000  26.9100000  43.9220000   5.8530000  24.8420000  43.5430000
   3.8360000  28.8110000  44.4530000   4.3300000  26.9900000  42.5820000
   5.4360000  24.9040000  42.1980000   6.4670000  24.0180000  43.8750000
   4.6900000  25.9670000  41.7520000   3.7480000  27.8270000  42.2210000
   5.6950000  24.1030000  41.5250000   4.3910000  25.9990000  40.7190000
   6.8610000  25.7200000  63.4810000   7.5980000  24.6700000  64.0500000
   6.4620000  26.7620000  64.3700000   6.4830000  25.7820000  62.0740000
   7.9000000  24.6760000  65.4250000   7.9270000  23.8560000  63.4290000
   6.7230000  26.7370000  65.7670000   5.7250000  27.8040000  63.8060000
   5.7530000  26.8500000  61.5740000   6.9130000  24.7260000  61.2030000
   7.4410000  25.6680000  66.2310000   8.5080000  23.8780000  65.8510000
   6.3720000  27.5050000  66.4380000   5.4150000  27.8930000  62.4760000
   5.3670000  28.6000000  64.4600000   5.4000000  26.8630000  60.1880000
   6.5540000  24.7080000  59.8440000   7.5220000  23.9310000  61.5970000
   7.6520000  25.6140000  67.2800000   4.9050000  28.7790000  62.1100000
   5.7990000  25.8190000  59.3650000   4.6580000  27.9260000  59.6480000
   6.8440000  23.8890000  59.1900000   5.3940000  25.8450000  57.9440000
   4.2970000  27.9660000  58.3320000   4.3570000  28.7290000  60.2970000
   4.6380000  26.9100000  57.4370000   5.7440000  24.8420000  57.0570000
   3.7270000  28.8110000  57.9680000   4.2210000  26.9900000  56.0960000
   5.3280000  24.9040000  55.7120000   6.3590000  24.0180000  57.3900000
   4.5820000  25.9670000  55.2660000   3.6400000  27.8270000  55.7350000
   5.5870000  24.1030000  55.0390000   4.2830000  25.9990000  54.2340000
   7.2950000  31.8740000   9.4220000   8.0320000  30.8240000   9.9910000
   6.8960000  32.9160000  10.3120000   6.9170000  31.9360000   8.0150000
   8.3340000  30.8300000  11.3670000   8.3620000  30.0100000   9.3710000
   7.1570000  32.8910000  11.7090000   6.1590000  33.9580000   9.7480000
   6.1870000  33.0040000   7.5150000   7.3470000  30.8800000   7.1450000
   7.8750000  31.8220000  12.1730000   8.9420000  30.0320000  11.7930000
   6.8060000  33.6590000  12.3790000   5.8490000  34.0470000   8.4180000
   5.8010000  34.7540000  10.4020000   5.8340000  33.0170000   6.1300000
   6.9880000  30.8620000   5.7860000   7.9560000  30.0850000   7.5380000
   8.0860000  31.7680000  13.2210000   5.3390000  34.9330000   8.0520000
   6.2330000  31.9730000   5.3070000   5.0920000  34.0800000   5.5900000
   7.2780000  30.0430000   5.1310000   5.8280000  31.9990000   3.8850000
   4.7310000  34.1200000   4.2730000   4.7910000  34.8830000   6.2380000
   5.0720000  33.0640000   3.3790000   6.1780000  30.9960000   2.9990000
   4.1610000  34.9650000   3.9100000   4.6550000  33.1440000   2.0380000
   5.7620000  31.0580000   1.6540000   6.7930000  30.1720000   3.3310000
   5.0160000  32.1210000   1.2080000   4.0740000  33.9810000   1.6770000
   6.0210000  30.2570000   0.9810000   4.7170000  32.1530000   0.1760000
   7.1870000  31.8740000  22.9370000   7.9230000  30.8240000  23.5060000
   6.7880000  32.9160000  23.8260000   6.8090000  31.9360000  21.5300000
   8.2250000  30.8300000  24.8820000   8.2530000  30.0100000  22.8860000
   7.0490000  32.8910000  25.2240000   6.0500000  33.9580000  23.2630000
   6.0780000  33.0040000  21.0300000   7.2380000  30.8800000  20.6600000
   7.7670000  31.8220000  25.6870000   8.8330000  30.0320000  25.3070000
   6.6970000  33.6590000  25.8940000   5.7400000  34.0470000  21.9330000
   5.6920000  34.7540000  23.9170000   5.7260000  33.0170000  19.6450000
   6.8790000  30.8620000  19.3000000   7.8470000  30.0850000  21.0530000
   7.9770000  31.7680000  26.7360000   5.2300000  34.9330000  21.5670000
   6.1250000  31.9730000  18.8220000   4.9840000  34.0800000  19.1040000
   7.1690000  30.0430000  18.6460000   5.7200000  31.9990000  17.4000000
   4.6230000  34.1200000  17.7880000   4.6830000  34.8830000  19.7530000
   4.9630000  33.0640000  16.8930000   6.0700000  30.9960000  16.5130000
   4.0530000  34.9650000  17.4240000   4.5470000  33.1440000  15.5530000
   5.6530000  31.0580000  15.1690000   6.6840000  30.1720000  16.8460000
   4.9070000  32.1210000  14.7230000   3.9650000  33.9810000  15.1920000
   5.9120000  30.2570000  14.4960000   4.6080000  32.1530000  13.6900000
   7.0780000  31.8740000  36.4510000   7.8150000  30.8240000  37.0200000
   6.6790000  32.9160000  37.3410000   6.7000000  31.9360000  35.0450000
   8.1170000  30.8300000  38.3960000   8.1450000  30.0100000  36.4000000
   6.9400000  32.8910000  38.7380000   5.9420000  33.9580000  36.7770000
   5.9700000  33.0040000  34.5450000   7.1300000  30.8800000  34.1740000
   7.6580000  31.8220000  39.2020000   8.7250000  30.0320000  38.8220000
   6.5890000  33.6590000  39.4080000   5.6320000  34.0470000  35.4470000
   5.5840000  34.7540000  37.4310000   5.6170000  33.0170000  33.1590000
   6.7710000  30.8620000  32.8150000   7.7390000  30.0850000  34.5680000
   7.8690000  31.7680000  40.2500000   5.1220000  34.9330000  35.0810000
   6.0160000  31.9730000  32.3360000   4.8750000  34.0800000  32.6190000
   7.0610000  30.0430000  32.1610000   5.6110000  31.9990000  30.9150000
   4.5140000  34.1200000  31.3020000   4.5740000  34.8830000  33.2670000
   4.8550000  33.0640000  30.4080000   5.9610000  30.9960000  30.0280000
   3.9440000  34.9650000  30.9390000   4.4380000  33.1440000  29.0670000
   5.5450000  31.0580000  28.6830000   6.5760000  30.1720000  30.3600000
   4.7990000  32.1210000  28.2370000   3.8570000  33.9810000  28.7060000
   5.8040000  30.2570000  28.0100000   4.5000000  32.1530000  27.2050000
   6.9700000  31.8740000  49.9660000   7.7060000  30.8240000  50.5350000
   6.5710000  32.9160000  50.8550000   6.5920000  31.9360000  48.5590000
   8.0080000  30.8300000  51.9110000   8.0360000  30.0100000  49.9150000
   6.8320000  32.8910000  52.2530000   5.8330000  33.9580000  50.2920000
   5.8610000  33.0040000  48.0590000   7.0210000  30.8800000  47.6890000
   7.5500000  31.8220000  52.7160000   8.6160000  30.0320000  52.3370000
   6.4800000  33.6590000  52.9230000   5.5230000  34.0470000  48.9620000
   5.4750000  34.7540000  50.9460000   5.5090000  33.0170000  46.6740000
   6.6620000  30.8620000  46.3290000   7.6300000  30.0850000  48.0820000
   7.7600000  31.7680000  53.7650000   5.0130000  34.9330000  48.5960000
   5.9080000  31.9730000  45.8510000   4.7670000  34.0800000  46.1330000
   6.9520000  30.0430000  45.6750000   5.5030000  31.9990000  44.4290000
   4.4060000  34.1200000  44.8170000   4.4660000  34.8830000  46.7820000
   4.7460000  33.0640000  43.9220000   5.8530000  30.9960000  43.5430000
   3.8360000  34.9650000  44.4530000   4.3300000  33.1440000  42.5820000
   5.4360000  31.0580000  42.1980000   6.4670000  30.1720000  43.8750000
   4.6900000  32.1210000  41.7520000   3.7480000  33.9810000  42.2210000
   5.6950000  30.2570000  41.5250000   4.3910000  32.1530000  40.7190000
   6.8610000  31.8740000  63.4810000   7.5980000  30.8240000  64.0500000
   6.4620000  32.9160000  64.3700000   6.4830000  31.9360000  62.0740000
   7.9000000  30.8300000  65.4250000   7.9270000  30.0100000  63.4290000
   6.7230000  32.8910000  65.7670000   5.7250000  33.9580000  63.8060000
   5.7530000  33.0040000  61.5740000   6.9130000  30.8800000  61.2030000
   7.4410000  31.8220000  66.2310000   8.5080000  30.0320000  65.8510000
   6.3720000  33.6590000  66.4380000   5.4150000  34.0470000  62.4760000
   5.3670000  34.7540000  64.4600000   5.4000000  33.0170000  60.1880000
   6.5540000  30.8620000  59.8440000   7.5220000  30.0850000  61.5970000
   7.6520000  31.7680000  67.2800000   4.9050000  34.9330000  62.1100000
   5.7990000  31.9730000  59.3650000   4.6580000  34.0800000  59.6480000
   6.8440000  30.0430000  59.1900000   5.3940000  31.9990000  57.9440000
   4.2970000  34.1200000  58.3320000   4.3570000  34.8830000  60.2970000
   4.6380000  33.0640000  57.4370000   5.7440000  30.9960000  57.0570000
   3.7270000  34.9650000  57.9680000   4.2210000  33.1440000  56.0960000
   5.3280000  31.0580000  55.7120000   6.3590000  30.1720000  57.3900000
   4.5820000  32.1210000  55.2660000   3.6400000  33.9810000  55.7350000
   5.5870000  30.2570000  55.0390000   4.2830000  32.1530000  54.2340000
   7.2950000   1.1040000   9.4220000   8.0320000   0.0540000   9.9910000
   6.8960000   2.1460000  10.3120000   6.9170000   1.1660000   8.0150000
   8.3340000   0.0600000  11.3670000   8.3620000  -0.7600000   9.3710000
   7.1570000   2.1210000  11.7090000   6.1590000   3.1880000   9.7480000
   6.1870000   2.2340000   7.5150000   7.3470000   0.1100000   7.1450000
   7.8750000   1.0520000  12.1730000   8.9420000  -0.7380000  11.7930000
   6.8060000   2.8890000  12.3790000   5.8490000   3.2770000   8.4180000
   5.8010000   3.9840000  10.4020000   5.8340000   2.2470000   6.1300000
   6.9880000   0.0920000   5.7860000   7.9560000  -0.6850000   7.5380000
   8.0860000   0.9980000  13.2210000   5.3390000   4.1630000   8.0520000
   6.2330000   1.2030000   5.3070000   5.0920000   3.3100000   5.5900000
   7.2780000  -0.7270000   5.1310000   5.8280000   1.2290000   3.8850000
   4.7310000   3.3500000   4.2730000   4.7910000   4.1130000   6.2380000
   5.0720000   2.2940000   3.3790000   6.1780000   0.2260000   2.9990000
   4.1610000   4.1950000   3.9100000   4.6550000   2.3740000   2.0380000
   5.7620000   0.2880000   1.6540000   6.7930000  -0.5980000   3.3310000
   5.0160000   1.3510000   1.2080000   4.0740000   3.2110000   1.6770000
   6.0210000  -0.5130000   0.9810000   4.7170000   1.3830000   0.1760000
   7.1870000   1.1040000  22.9370000   7.9230000   0.0540000  23.5060000
   6.7880000   2.1460000  23.8260000   6.8090000   1.1660000  21.5300000
   8.2250000   0.0600000  24.8820000   8.2530000  -0.7600000  22.8860000
   7.0490000   2.1210000  25.2240000   6.0500000   3.1880000  23.2630000
   6.0780000   2.2340000  21.0300000   7.2380000   0.1100000  20.6600000
   7.7670000   1.0520000  25.6870000   8.8330000  -0.7380000  25.3070000
   6.6970000   2.8890000  25.8940000   5.7400000   3.2770000  21.9330000
   5.6920000   3.9840000  23.9170000   5.7260000   2.2470000  19.6450000
   6.8790000   0.0920000  19.3000000   7.8470000  -0.6850000  21.0530000
   7.9770000   0.9980000  26.7360000   5.2300000   4.1630000  21.5670000
   6.1250000   1.2030000  18.8220000   4.9840000   3.3100000  19.1040000
   7.1690000  -0.7270000  18.6460000   5.7200000   1.2290000  17.4000000
   4.6230000   3.3500000  17.7880000   4.6830000   4.1130000  19.7530000
   4.9630000   2.2940000  16.8930000   6.0700000   0.2260000  16.5130000
   4.0530000   4.1950000  17.4240000   4.5470000   2.3740000  15.5530000
   5.6530000   0.2880000  15.1690000   6.6840000  -0.5980000  16.8460000
   4.9070000   1.3510000  14.7230000   3.9650000   3.2110000  15.1920000
   5.9120000  -0.5130000  14.4960000   4.6080000   1.3830000  13.6900000
   7.0780000   1.1040000  36.4510000   7.8150000   0.0540000  37.0200000
   6.6790000   2.1460000  37.3410000   6.7000000   1.1660000  35.0450000
   8.1170000   0.0600000  38.3960000   8.1450000  -0.7600000  36.4000000
   6.9400000   2.1210000  38.7380000   5.9420000   3.1880000  36.7770000
   5.9700000   2.2340000  34.5450000   7.1300000   0.1100000  34.1740000
   7.6580000   1.0520000  39.2020000   8.7250000  -0.7380000  38.8220000
   6.5890000   2.8890000  39.4080000   5.6320000   3.2770000  35.4470000
   5.5840000   3.9840000  37.4310000   5.6170000   2.2470000  33.1590000
   6.7710000   0.0920000  32.8150000   7.7390000  -0.6850000  34.5680000
   7.8690000   0.9980000  40.2500000   5.1220000   4.1630000  35.0810000
   6.0160000   1.2030000  32.3360000   4.8750000   3.3100000  32.6190000
   7.0610000  -0.7270000  32.1610000   5.6110000   1.2290000  30.9150000
   4.5140000   3.3500000  31.3020000   4.5740000   4.1130000  33.2670000
   4.8550000   2.2940000  30.4080000   5.9610000   0.2260000  30.0280000
   3.9440000   4.1950000  30.9390000   4.4380000   2.3740000  29.0670000
   5.5450000   0.2880000  28.6830000   6.5760000  -0.5980000  30.3600000
   4.7990000   1.3510000  28.2370000   3.8570000   3.2110000  28.7060000
   5.8040000  -0.5130000  28.0100000   4.5000000   1.3830000  27.2050000
   6.9700000   1.1040000  49.9660000   7.7060000   0.0540000  50.5350000
   6.5710000   2.1460000  50.8550000   6.5920000   1.1660000  48.5590000
   8.0080000   0.0600000  51.9110000   8.0360000  -0.7600000  49.9150000
   6.8320000   2.1210000  52.2530000   5.8330000   3.1880000  50.2920000
   5.8610000   2.2340000  48.0590000   7.0210000   0.1100000  47.6890000
   7.5500000   1.0520000  52.7160000   8.6160000  -0.7380000  52.3370000
   6.4800000   2.8890000  52.9230000   5.5230000   3.2770000  48.9620000
   5.4750000   3.9840000  50.9460000   5.5090000   2.2470000  46.6740000
   6.6620000   0.0920000  46.3290000   7.6300000  -0.6850000  48.0820000
   7.7600000   0.9980000  53.7650000   5.0130000   4.1630000  48.5960000
   5.9080000   1.2030000  45.8510000   4.7670000   3.3100000  46.1330000
   6.9520000  -0.7270000  45.6750000   5.5030000   1.2290000  44.4290000
   4.4060000   3.3500000  44.8170000   4.4660000   4.1130000  46.7820000
   4.7460000   2.2940000  43.9220000   5.8530000   0.2260000  43.5430000
   3.8360000   4.1950000  44.4530000   4.3300000   2.3740000  42.5820000
   5.4360000   0.2880000  42.1980000   6.4670000  -0.5980000  43.8750000
   4.6900000   1.3510000  41.7520000   3.7480000   3.2110000  42.2210000
   5.6950000  -0.5130000  41.5250000   4.3910000   1.3830000  40.7190000
   6.8610000   1.1040000  63.4810000   7.5980000   0.0540000  64.0500000
   6.4620000   2.1460000  64.3700000   6.4830000   1.1660000  62.0740000
   7.9000000   0.0600000  65.4250000   7.9270000  -0.7600000  63.4290000
   6.7230000   2.1210000  65.7670000   5.7250000   3.1880000  63.8060000
   5.7530000   2.2340000  61.5740000   6.9130000   0.1100000  61.2030000
   7.4410000   1.0520000  66.2310000   8.5080000  -0.7380000  65.8510000
   6.3720000   2.8890000  66.4380000   5.4150000   3.2770000  62.4760000
   5.3670000   3.9840000  64.4600000   5.4000000   2.2470000  60.1880000
   6.5540000   0.0920000  59.8440000   7.5220000  -0.6850000  61.5970000
   7.6520000   0.9980000  67.2800000   4.9050000   4.1630000  62.1100000
   5.7990000   1.2030000  59.3650000   4.6580000   3.3100000  59.6480000
   6.8440000  -0.7270000  59.1900000   5.3940000   1.2290000  57.9440000
   4.2970000   3.3500000  58.3320000   4.3570000   4.1130000  60.2970000
   4.6380000   2.2940000  57.4370000   5.7440000   0.2260000  57.0570000
   3.7270000   4.1950000  57.9680000   4.2210000   2.3740000  56.0960000
   5.3280000   0.2880000  55.7120000   6.3590000  -0.5980000  57.3900000
   4.5820000   1.3510000  55.2660000   3.6400000   3.2110000  55.7350000
   5.5870000  -0.5130000  55.0390000   4.2830000   1.3830000  54.2340000
   7.2950000  38.0280000   9.4220000   8.0320000  36.9780000   9.9910000
   6.8960000  39.0700000  10.3120000   6.9170000  38.0900000   8.0150000
   8.3340000  36.9840000  11.3670000   8.3620000  36.1640000   9.3710000
   7.1570000  39.0450000  11.7090000   6.1590000  40.1120000   9.7480000
   6.1870000  39.1580000   7.5150000   7.3470000  37.0340000   7.1450000
   7.8750000  37.9760000  12.1730000   8.9420000  36.1860000  11.7930000
   6.8060000  39.8130000  12.3790000   5.8490000  40.2010000   8.4180000
   5.8010000  40.9080000  10.4020000   5.8340000  39.1710000   6.1300000
   6.9880000  37.0160000   5.7860000   7.9560000  36.2390000   7.5380000
   8.0860000  37.9220000  13.2210000   5.3390000  41.0870000   8.0520000
   6.2330000  38.1270000   5.3070000   5.0920000  40.2340000   5.5900000
   7.2780000  36.1970000   5.1310000   5.8280000  38.1530000   3.8850000
   4.7310000  40.2740000   4.2730000   4.7910000  41.0370000   6.2380000
   5.0720000  39.2180000   3.3790000   6.1780000  37.1500000   2.9990000
   4.1610000  41.1190000   3.9100000   4.6550000  39.2980000   2.0380000
   5.7620000  37.2120000   1.6540000   6.7930000  36.3260000   3.3310000
   5.0160000  38.2750000   1.2080000   4.0740000  40.1350000   1.6770000
   6.0210000  36.4110000   0.9810000   4.7170000  38.3070000   0.1760000
   7.1870000  38.0280000  22.9370000   7.9230000  36.9780000  23.5060000
   6.7880000  39.0700000  23.8260000   6.8090000  38.0900000  21.5300000
   8.2250000  36.9840000  24.8820000   8.2530000  36.1640000  22.8860000
   7.0490000  39.0450000  25.2240000   6.0500000  40.1120000  23.2630000
   6.0780000  39.1580000  21.0300000   7.2380000  37.0340000  20.6600000
   7.7670000  37.9760000  25.6870000   8.8330000  36.1860000  25.3070000
   6.6970000  39.8130000  25.8940000   5.7400000  40.2010000  21.9330000
   5.6920000  40.9080000  23.9170000   5.7260000  39.1710000  19.6450000
   6.8790000  37.0160000  19.3000000   7.8470000  36.2390000  21.0530000
   7.9770000  37.9220000  26.7360000   5.2300000  41.0870000  21.5670000
   6.1250000  38.1270000  18.8220000   4.9840000  40.2340000  19.1040000
   7.1690000  36.1970000  18.6460000   5.7200000  38.1530000  17.4000000
   4.6230000  40.2740000  17.7880000   4.6830000  41.0370000  19.7530000
   4.9630000  39.2180000  16.8930000   6.0700000  37.1500000  16.5130000
   4.0530000  41.1190000  17.4240000   4.5470000  39.2980000  15.5530000
   5.6530000  37.2120000  15.1690000   6.6840000  36.3260000  16.8460000
   4.9070000  38.2750000  14.7230000   3.9650000  40.1350000  15.1920000
   5.9120000  36.4110000  14.4960000   4.6080000  38.3070000  13.6900000
   7.0780000  38.0280000  36.4510000   7.8150000  36.9780000  37.0200000
   6.6790000  39.0700000  37.3410000   6.7000000  38.0900000  35.0450000
   8.1170000  36.9840000  38.3960000   8.1450000  36.1640000  36.4000000
   6.9400000  39.0450000  38.7380000   5.9420000  40.1120000  36.7770000
   5.9700000  39.1580000  34.5450000   7.1300000  37.0340000  34.1740000
   7.6580000  37.9760000  39.2020000   8.7250000  36.1860000  38.8220000
   6.5890000  39.8130000  39.4080000   5.6320000  40.2010000  35.4470000
   5.5840000  40.9080000  37.4310000   5.6170000  39.1710000  33.1590000
   6.7710000  37.0160000  32.8150000   7.7390000  36.2390000  34.5680000
   7.8690000  37.9220000  40.2500000   5.1220000  41.0870000  35.0810000
   6.0160000  38.1270000  32.3360000   4.8750000  40.2340000  32.6190000
   7.0610000  36.1970000  32.1610000   5.6110000  38.1530000  30.9150000
   4.5140000  40.2740000  31.3020000   4.5740000  41.0370000  33.2670000
   4.8550000  39.2180000  30.4080000   5.9610000  37.1500000  30.0280000
   3.9440000  41.1190000  30.9390000   4.4380000  39.2980000  29.0670000
   5.5450000  37.2120000  28.6830000   6.5760000  36.3260000  30.3600000
   4.7990000  38.2750000  28.2370000   3.8570000  40.1350000  28.7060000
   5.8040000  36.4110000  28.0100000   4.5000000  38.3070000  27.2050000
   6.9700000  38.0280000  49.9660000   7.7060000  36.9780000  50.5350000
   6.5710000  39.0700000  50.8550000   6.5920000  38.0900000  48.5590000
   8.0080000  36.9840000  51.9110000   8.0360000  36.1640000  49.9150000
   6.8320000  39.0450000  52.2530000   5.8330000  40.1120000  50.2920000
   5.8610000  39.1580000  48.0590000   7.0210000  37.0340000  47.6890000
   7.5500000  37.9760000  52.7160000   8.6160000  36.1860000  52.3370000
   6.4800000  39.8130000  52.9230000   5.5230000  40.2010000  48.9620000
   5.4750000  40.9080000  50.9460000   5.5090000  39.1710000  46.6740000
   6.6620000  37.0160000  46.3290000   7.6300000  36.2390000  48.0820000
   7.7600000  37.9220000  53.7650000   5.0130000  41.0870000  48.5960000
   5.9080000  38.1270000  45.8510000   4.7670000  40.2340000  46.1330000
   6.9520000  36.1970000  45.6750000   5.5030000  38.1530000  44.4290000
   4.4060000  40.2740000  44.8170000   4.4660000  41.0370000  46.7820000
   4.7460000  39.2180000  43.9220000   5.8530000  37.1500000  43.5430000
   3.8360000  41.1190000  44.4530000   4.3300000  39.2980000  42.5820000
   5.4360000  37.2120000  42.1980000   6.4670000  36.3260000  43.8750000
   4.6900000  38.2750000  41.7520000   3.7480000  40.1350000  42.2210000
   5.6950000  36.4110000  41.5250000   4.3910000  38.3070000  40.7190000
   6.8610000  38.0280000  63.4810000   7.5980000  36.9780000  64.0500000
   6.4620000  39.0700000  64.3700000   6.4830000  38.0900000  62.0740000
   7.9000000  36.9840000  65.4250000   7.9270000  36.1640000  63.4290000
   6.7230000  39.0450000  65.7670000   5.7250000  40.1120000  63.8060000
   5.7530000  39.1580000  61.5740000   6.9130000  37.0340000  61.2030000
   7.4410000  37.9760000  66.2310000   8.5080000  36.1860000  65.8510000
   6.3720000  39.8130000  66.4380000   5.4150000  40.2010000  62.4760000
   5.3670000  40.9080000  64.4600000   5.4000000  39.1710000  60.1880000
   6.5540000  37.0160000  59.8440000   7.5220000  36.2390000  61.5970000
   7.6520000  37.9220000  67.2800000   4.9050000  41.0870000  62.1100000
   5.7990000  38.1270000  59.3650000   4.6580000  40.2340000  59.6480000
   6.8440000  36.1970000  59.1900000   5.3940000  38.1530000  57.9440000
   4.2970000  40.2740000  58.3320000   4.3570000  41.0370000  60.2970000
   4.6380000  39.2180000  57.4370000   5.7440000  37.1500000  57.0570000
   3.7270000  41.1190000  57.9680000   4.2210000  39.2980000  56.0960000
   5.3280000  37.2120000  55.7120000   6.3590000  36.3260000  57.3900000
   4.5820000  38.2750000  55.2660000   3.6400000  40.1350000  55.7350000
   5.5870000  36.4110000  55.0390000   4.2830000  38.3070000  54.2340000
   9.5560000   4.1810000   4.0920000   8.8200000   3.1310000   3.5230000
   9.9550000   5.2230000   3.2030000   9.9340000   4.2430000   5.4990000
   8.5180000   3.1370000   2.1470000   8.4900000   2.3170000   4.1440000
   9.6940000   5.1980000   1.8060000  10.6930000   6.2650000   3.7670000
  10.6650000   5.3110000   5.9990000   9.5050000   3.1870000   6.3690000
   8.9760000   4.1290000   1.3420000   7.9100000   2.3390000   1.7220000
  10.0460000   5.9660000   1.1350000  11.0030000   6.3540000   5.0960000
  11.0510000   7.0610000   3.1120000  11.0170000   5.3240000   7.3840000
   9.8640000   3.1690000   7.7290000   8.8960000   2.3920000   5.9760000
   8.7660000   4.0750000   0.2930000  11.5130000   7.2400000   5.4630000
  10.6180000   4.2800000   8.2070000  11.7590000   6.3870000   7.9250000
   9.5740000   2.3500000   8.3830000  11.0230000   4.3060000   9.6290000
  12.1200000   6.4270000   9.2410000  12.0600000   7.1900000   7.2760000
  11.7800000   5.3710000  10.1360000  10.6730000   3.3030000  10.5160000
  12.6900000   7.2720000   9.6050000  12.1960000   5.4510000  11.4770000
  11.0900000   3.3650000  11.8600000  10.0590000   2.4790000  10.1830000
  11.8360000   4.4280000  12.3060000  12.7780000   6.2880000  11.8370000
  10.8310000   2.5640000  12.5330000  12.1350000   4.4600000  13.3390000
   9.4480000   4.1810000  17.6070000   8.7110000   3.1310000  17.0380000
   9.8470000   5.2230000  16.7180000   9.8260000   4.2430000  19.0140000
   8.4090000   3.1370000  15.6620000   8.3810000   2.3170000  17.6580000
   9.5860000   5.1980000  15.3200000  10.5840000   6.2650000  17.2810000
  10.5560000   5.3110000  19.5140000   9.3960000   3.1870000  19.8840000
   8.8680000   4.1290000  14.8570000   7.8010000   2.3390000  15.2360000
   9.9370000   5.9660000  14.6500000  10.8940000   6.3540000  18.6110000
  10.9420000   7.0610000  16.6270000  10.9090000   5.3240000  20.8990000
   9.7550000   3.1690000  21.2440000   8.7870000   2.3920000  19.4910000
   8.6570000   4.0750000  13.8080000  11.4040000   7.2400000  18.9770000
  10.5100000   4.2800000  21.7220000  11.6510000   6.3870000  21.4400000
   9.4650000   2.3500000  21.8980000  10.9150000   4.3060000  23.1440000
  12.0120000   6.4270000  22.7560000  11.9520000   7.1900000  20.7910000
  11.6710000   5.3710000  23.6500000  10.5650000   3.3030000  24.0300000
  12.5820000   7.2720000  23.1190000  12.0880000   5.4510000  24.9910000
  10.9810000   3.3650000  25.3750000   9.9500000   2.4790000  23.6980000
  11.7270000   4.4280000  25.8210000  12.6690000   6.2880000  25.3520000
  10.7220000   2.5640000  26.0480000  12.0260000   4.4600000  26.8530000
   9.2310000   4.1810000  44.6360000   8.4940000   3.1310000  44.0670000
   9.6300000   5.2230000  43.7470000   9.6090000   4.2430000  46.0430000
   8.1920000   3.1370000  42.6910000   8.1640000   2.3170000  44.6870000
   9.3690000   5.1980000  42.3490000  10.3670000   6.2650000  44.3100000
  10.3390000   5.3110000  46.5430000   9.1790000   3.1870000  46.9130000
   8.6510000   4.1290000  41.8860000   7.5840000   2.3390000  42.2650000
   9.7200000   5.9660000  41.6790000  10.6770000   6.3540000  45.6400000
  10.7250000   7.0610000  43.6560000  10.6920000   5.3240000  47.9280000
   9.5380000   3.1690000  48.2730000   8.5700000   2.3920000  46.5200000
   8.4400000   4.0750000  40.8370000  11.1870000   7.2400000  46.0060000
  10.2930000   4.2800000  48.7510000  11.4340000   6.3870000  48.4690000
   9.2480000   2.3500000  48.9270000  10.6970000   4.3060000  50.1730000
  11.7950000   6.4270000  49.7850000  11.7350000   7.1900000  47.8200000
  11.4540000   5.3710000  50.6800000  10.3480000   3.3030000  51.0590000
  12.3650000   7.2720000  50.1480000  11.8710000   5.4510000  52.0200000
  10.7640000   3.3650000  52.4040000   9.7330000   2.4790000  50.7270000
  11.5100000   4.4280000  52.8500000  12.4520000   6.2880000  52.3810000
  10.5050000   2.5640000  53.0770000  11.8090000   4.4600000  53.8830000
   9.1220000   4.1810000  58.1500000   8.3860000   3.1310000  57.5820000
   9.5210000   5.2230000  57.2610000   9.5000000   4.2430000  59.5570000
   8.0840000   3.1370000  56.2060000   8.0560000   2.3170000  58.2020000
   9.2600000   5.1980000  55.8640000  10.2590000   6.2650000  57.8250000
  10.2310000   5.3110000  60.0570000   9.0710000   3.1870000  60.4280000
   8.5420000   4.1290000  55.4000000   7.4760000   2.3390000  55.7800000
   9.6120000   5.9660000  55.1930000  10.5690000   6.3540000  59.1550000
  10.6170000   7.0610000  57.1710000  10.5830000   5.3240000  61.4430000
   9.4300000   3.1690000  61.7870000   8.4620000   2.3920000  60.0340000
   8.3320000   4.0750000  54.3520000  11.0790000   7.2400000  59.5210000
  10.1840000   4.2800000  62.2660000  11.3250000   6.3870000  61.9830000
   9.1400000   2.3500000  62.4410000  10.5890000   4.3060000  63.6870000
  11.6860000   6.4270000  63.3000000  11.6260000   7.1900000  61.3340000
  11.3460000   5.3710000  64.1940000  10.2390000   3.3030000  64.5740000
  12.2560000   7.2720000  63.6630000  11.7620000   5.4510000  65.5350000
  10.6560000   3.3650000  65.9190000   9.6250000   2.4790000  64.2410000
  11.4020000   4.4280000  66.3650000  12.3440000   6.2880000  65.8960000
  10.3970000   2.5640000  66.5920000  11.7010000   4.4600000  67.3970000
   9.5560000  10.3350000   4.0920000   8.8200000   9.2850000   3.5230000
   9.9550000  11.3770000   3.2030000   9.9340000  10.3970000   5.4990000
   8.5180000   9.2910000   2.1470000   8.4900000   8.4710000   4.1440000
   9.6940000  11.3520000   1.8060000  10.6930000  12.4190000   3.7670000
  10.6650000  11.4650000   5.9990000   9.5050000   9.3410000   6.3690000
   8.9760000  10.2830000   1.3420000   7.9100000   8.4930000   1.7220000
  10.0460000  12.1200000   1.1350000  11.0030000  12.5080000   5.0960000
  11.0510000  13.2150000   3.1120000  11.0170000  11.4780000   7.3840000
   9.8640000   9.3230000   7.7290000   8.8960000   8.5460000   5.9760000
   8.7660000  10.2290000   0.2930000  11.5130000  13.3940000   5.4630000
  10.6180000  10.4340000   8.2070000  11.7590000  12.5410000   7.9250000
   9.5740000   8.5040000   8.3830000  11.0230000  10.4600000   9.6290000
  12.1200000  12.5810000   9.2410000  12.0600000  13.3440000   7.2760000
  11.7800000  11.5250000  10.1360000  10.6730000   9.4570000  10.5160000
  12.6900000  13.4260000   9.6050000  12.1960000  11.6050000  11.4770000
  11.0900000   9.5190000  11.8600000  10.0590000   8.6330000  10.1830000
  11.8360000  10.5820000  12.3060000  12.7780000  12.4420000  11.8370000
  10.8310000   8.7180000  12.5330000  12.1350000  10.6140000  13.3390000
   9.4480000  10.3350000  17.6070000   8.7110000   9.2850000  17.0380000
   9.8470000  11.3770000  16.7180000   9.8260000  10.3970000  19.0140000
   8.4090000   9.2910000  15.6620000   8.3810000   8.4710000  17.6580000
   9.5860000  11.3520000  15.3200000  10.5840000  12.4190000  17.2810000
  10.5560000  11.4650000  19.5140000   9.3960000   9.3410000  19.8840000
   8.8680000  10.2830000  14.8570000   7.8010000   8.4930000  15.2360000
   9.9370000  12.1200000  14.6500000  10.8940000  12.5080000  18.6110000
  10.9420000  13.2150000  16.6270000  10.9090000  11.4780000  20.8990000
   9.7550000   9.3230000  21.2440000   8.7870000   8.5460000  19.4910000
   8.6570000  10.2290000  13.8080000  11.4040000  13.3940000  18.9770000
  10.5100000  10.4340000  21.7220000  11.6510000  12.5410000  21.4400000
   9.4650000   8.5040000  21.8980000  10.9150000  10.4600000  23.1440000
  12.0120000  12.5810000  22.7560000  11.9520000  13.3440000  20.7910000
  11.6710000  11.5250000  23.6500000  10.5650000   9.4570000  24.0300000
  12.5820000  13.4260000  23.1190000  12.0880000  11.6050000  24.9910000
  10.9810000   9.5190000  25.3750000   9.9500000   8.6330000  23.6980000
  11.7270000  10.5820000  25.8210000  12.6690000  12.4420000  25.3520000
  10.7220000   8.7180000  26.0480000  12.0260000  10.6140000  26.8530000
   9.2310000  10.3350000  44.6360000   8.4940000   9.2850000  44.0670000
   9.6300000  11.3770000  43.7470000   9.6090000  10.3970000  46.0430000
   8.1920000   9.2910000  42.6910000   8.1640000   8.4710000  44.6870000
   9.3690000  11.3520000  42.3490000  10.3670000  12.4190000  44.3100000
  10.3390000  11.4650000  46.5430000   9.1790000   9.3410000  46.9130000
   8.6510000  10.2830000  41.8860000   7.5840000   8.4930000  42.2650000
   9.7200000  12.1200000  41.6790000  10.6770000  12.5080000  45.6400000
  10.7250000  13.2150000  43.6560000  10.6920000  11.4780000  47.9280000
   9.5380000   9.3230000  48.2730000   8.5700000   8.5460000  46.5200000
   8.4400000  10.2290000  40.8370000  11.1870000  13.3940000  46.0060000
  10.2930000  10.4340000  48.7510000  11.4340000  12.5410000  48.4690000
   9.2480000   8.5040000  48.9270000  10.6970000  10.4600000  50.1730000
  11.7950000  12.5810000  49.7850000  11.7350000  13.3440000  47.8200000
  11.4540000  11.5250000  50.6800000  10.3480000   9.4570000  51.0590000
  12.3650000  13.4260000  50.1480000  11.8710000  11.6050000  52.0200000
  10.7640000   9.5190000  52.4040000   9.7330000   8.6330000  50.7270000
  11.5100000  10.5820000  52.8500000  12.4520000  12.4420000  52.3810000
  10.5050000   8.7180000  53.0770000  11.8090000  10.6140000  53.8830000
   9.1220000  10.3350000  58.1500000   8.3860000   9.2850000  57.5820000
   9.5210000  11.3770000  57.2610000   9.5000000  10.3970000  59.5570000
   8.0840000   9.2910000  56.2060000   8.0560000   8.4710000  58.2020000
   9.2600000  11.3520000  55.8640000  10.2590000  12.4190000  57.8250000
  10.2310000  11.4650000  60.0570000   9.0710000   9.3410000  60.4280000
   8.5420000  10.2830000  55.4000000   7.4760000   8.4930000  55.7800000
   9.6120000  12.1200000  55.1930000  10.5690000  12.5080000  59.1550000
  10.6170000  13.2150000  57.1710000  10.5830000  11.4780000  61.4430000
   9.4300000   9.3230000  61.7870000   8.4620000   8.5460000  60.0340000
   8.3320000  10.2290000  54.3520000  11.0790000  13.3940000  59.5210000
  10.1840000  10.4340000  62.2660000  11.3250000  12.5410000  61.9830000
   9.1400000   8.5040000  62.4410000  10.5890000  10.4600000  63.6870000
  11.6860000  12.5810000  63.3000000  11.6260000  13.3440000  61.3340000
  11.3460000  11.5250000  64.1940000  10.2390000   9.4570000  64.5740000
  12.2560000  13.4260000  63.6630000  11.7620000  11.6050000  65.5350000
  10.6560000   9.5190000  65.9190000   9.6250000   8.6330000  64.2410000
  11.4020000  10.5820000  66.3650000  12.3440000  12.4420000  65.8960000
  10.3970000   8.7180000  66.5920000  11.7010000  10.6140000  67.3970000
   9.5560000  16.4890000   4.0920000   8.8200000  15.4390000   3.5230000
   9.9550000  17.5310000   3.2030000   9.9340000  16.5510000   5.4990000
   8.5180000  15.4450000   2.1470000   8.4900000  14.6250000   4.1440000
   9.6940000  17.5060000   1.8060000  10.6930000  18.5730000   3.7670000
  10.6650000  17.6190000   5.9990000   9.5050000  15.4950000   6.3690000
   8.9760000  16.4370000   1.3420000   7.9100000  14.6470000   1.7220000
  10.0460000  18.2740000   1.1350000  11.0030000  18.6620000   5.0960000
  11.0510000  19.3690000   3.1120000  11.0170000  17.6320000   7.3840000
   9.8640000  15.4770000   7.7290000   8.8960000  14.7000000   5.9760000
   8.7660000  16.3830000   0.2930000  11.5130000  19.5480000   5.4630000
  10.6180000  16.5880000   8.2070000  11.7590000  18.6950000   7.9250000
   9.5740000  14.6580000   8.3830000  11.0230000  16.6140000   9.6290000
  12.1200000  18.7350000   9.2410000  12.0600000  19.4980000   7.2760000
  11.7800000  17.6790000  10.1360000  10.6730000  15.6110000  10.5160000
  12.6900000  19.5800000   9.6050000  12.1960000  17.7590000  11.4770000
  11.0900000  15.6730000  11.8600000  10.0590000  14.7870000  10.1830000
  11.8360000  16.7360000  12.3060000  12.7780000  18.5960000  11.8370000
  10.8310000  14.8720000  12.5330000  12.1350000  16.7680000  13.3390000
   9.4480000  16.4890000  17.6070000   8.7110000  15.4390000  17.0380000
   9.8470000  17.5310000  16.7180000   9.8260000  16.5510000  19.0140000
   8.4090000  15.4450000  15.6620000   8.3810000  14.6250000  17.6580000
   9.5860000  17.5060000  15.3200000  10.5840000  18.5730000  17.2810000
  10.5560000  17.6190000  19.5140000   9.3960000  15.4950000  19.8840000
   8.8680000  16.4370000  14.8570000   7.8010000  14.6470000  15.2360000
   9.9370000  18.2740000  14.6500000  10.8940000  18.6620000  18.6110000
  10.9420000  19.3690000  16.6270000  10.9090000  17.6320000  20.8990000
   9.7550000  15.4770000  21.2440000   8.7870000  14.7000000  19.4910000
   8.6570000  16.3830000  13.8080000  11.4040000  19.5480000  18.9770000
  10.5100000  16.5880000  21.7220000  11.6510000  18.6950000  21.4400000
   9.4650000  14.6580000  21.8980000  10.9150000  16.6140000  23.1440000
  12.0120000  18.7350000  22.7560000  11.9520000  19.4980000  20.7910000
  11.6710000  17.6790000  23.6500000  10.5650000  15.6110000  24.0300000
  12.5820000  19.5800000  23.1190000  12.0880000  17.7590000  24.9910000
  10.9810000  15.6730000  25.3750000   9.9500000  14.7870000  23.6980000
  11.7270000  16.7360000  25.8210000  12.6690000  18.5960000  25.3520000
  10.7220000  14.8720000  26.0480000  12.0260000  16.7680000  26.8530000
   9.2310000  16.4890000  44.6360000   8.4940000  15.4390000  44.0670000
   9.6300000  17.5310000  43.7470000   9.6090000  16.5510000  46.0430000
   8.1920000  15.4450000  42.6910000   8.1640000  14.6250000  44.6870000
   9.3690000  17.5060000  42.3490000  10.3670000  18.5730000  44.3100000
  10.3390000  17.6190000  46.5430000   9.1790000  15.4950000  46.9130000
   8.6510000  16.4370000  41.8860000   7.5840000  14.6470000  42.2650000
   9.7200000  18.2740000  41.6790000  10.6770000  18.6620000  45.6400000
  10.7250000  19.3690000  43.6560000  10.6920000  17.6320000  47.9280000
   9.5380000  15.4770000  48.2730000   8.5700000  14.7000000  46.5200000
   8.4400000  16.3830000  40.8370000  11.1870000  19.5480000  46.0060000
  10.2930000  16.5880000  48.7510000  11.4340000  18.6950000  48.4690000
   9.2480000  14.6580000  48.9270000  10.6970000  16.6140000  50.1730000
  11.7950000  18.7350000  49.7850000  11.7350000  19.4980000  47.8200000
  11.4540000  17.6790000  50.6800000  10.3480000  15.6110000  51.0590000
  12.3650000  19.5800000  50.1480000  11.8710000  17.7590000  52.0200000
  10.7640000  15.6730000  52.4040000   9.7330000  14.7870000  50.7270000
  11.5100000  16.7360000  52.8500000  12.4520000  18.5960000  52.3810000
  10.5050000  14.8720000  53.0770000  11.8090000  16.7680000  53.8830000
   9.1220000  16.4890000  58.1500000   8.3860000  15.4390000  57.5820000
   9.5210000  17.5310000  57.2610000   9.5000000  16.5510000  59.5570000
   8.0840000  15.4450000  56.2060000   8.0560000  14.6250000  58.2020000
   9.2600000  17.5060000  55.8640000  10.2590000  18.5730000  57.8250000
  10.2310000  17.6190000  60.0570000   9.0710000  15.4950000  60.4280000
   8.5420000  16.4370000  55.4000000   7.4760000  14.6470000  55.7800000
   9.6120000  18.2740000  55.1930000  10.5690000  18.6620000  59.1550000
  10.6170000  19.3690000  57.1710000  10.5830000  17.6320000  61.4430000
   9.4300000  15.4770000  61.7870000   8.4620000  14.7000000  60.0340000
   8.3320000  16.3830000  54.3520000  11.0790000  19.5480000  59.5210000
  10.1840000  16.5880000  62.2660000  11.3250000  18.6950000  61.9830000
   9.1400000  14.6580000  62.4410000  10.5890000  16.6140000  63.6870000
  11.6860000  18.7350000  63.3000000  11.6260000  19.4980000  61.3340000
  11.3460000  17.6790000  64.1940000  10.2390000  15.6110000  64.5740000
  12.2560000  19.5800000  63.6630000  11.7620000  17.7590000  65.5350000
  10.6560000  15.6730000  65.9190000   9.6250000  14.7870000  64.2410000
  11.4020000  16.7360000  66.3650000  12.3440000  18.5960000  65.8960000
  10.3970000  14.8720000  66.5920000  11.7010000  16.7680000  67.3970000
   9.5560000  22.6430000   4.0920000   8.8200000  21.5930000   3.5230000
   9.9550000  23.6850000   3.2030000   9.9340000  22.7050000   5.4990000
   8.5180000  21.5990000   2.1470000   8.4900000  20.7790000   4.1440000
   9.6940000  23.6600000   1.8060000  10.6930000  24.7270000   3.7670000
  10.6650000  23.7730000   5.9990000   9.5050000  21.6490000   6.3690000
   8.9760000  22.5910000   1.3420000   7.9100000  20.8010000   1.7220000
  10.0460000  24.4280000   1.1350000  11.0030000  24.8160000   5.0960000
  11.0510000  25.5230000   3.1120000  11.0170000  23.7860000   7.3840000
   9.8640000  21.6310000   7.7290000   8.8960000  20.8540000   5.9760000
   8.7660000  22.5370000   0.2930000  11.5130000  25.7020000   5.4630000
  10.6180000  22.7420000   8.2070000  11.7590000  24.8490000   7.9250000
   9.5740000  20.8120000   8.3830000  11.0230000  22.7680000   9.6290000
  12.1200000  24.8890000   9.2410000  12.0600000  25.6520000   7.2760000
  11.7800000  23.8330000  10.1360000  10.6730000  21.7650000  10.5160000
  12.6900000  25.7340000   9.6050000  12.1960000  23.9130000  11.4770000
  11.0900000  21.8270000  11.8600000  10.0590000  20.9410000  10.1830000
  11.8360000  22.8900000  12.3060000  12.7780000  24.7500000  11.8370000
  10.8310000  21.0260000  12.5330000  12.1350000  22.9220000  13.3390000
   9.4480000  22.6430000  17.6070000   8.7110000  21.5930000  17.0380000
   9.8470000  23.6850000  16.7180000   9.8260000  22.7050000  19.0140000
   8.4090000  21.5990000  15.6620000   8.3810000  20.7790000  17.6580000
   9.5860000  23.6600000  15.3200000  10.5840000  24.7270000  17.2810000
  10.5560000  23.7730000  19.5140000   9.3960000  21.6490000  19.8840000
   8.8680000  22.5910000  14.8570000   7.8010000  20.8010000  15.2360000
   9.9370000  24.4280000  14.6500000  10.8940000  24.8160000  18.6110000
  10.9420000  25.5230000  16.6270000  10.9090000  23.7860000  20.8990000
   9.7550000  21.6310000  21.2440000   8.7870000  20.8540000  19.4910000
   8.6570000  22.5370000  13.8080000  11.4040000  25.7020000  18.9770000
  10.5100000  22.7420000  21.7220000  11.6510000  24.8490000  21.4400000
   9.4650000  20.8120000  21.8980000  10.9150000  22.7680000  23.1440000
  12.0120000  24.8890000  22.7560000  11.9520000  25.6520000  20.7910000
  11.6710000  23.8330000  23.6500000  10.5650000  21.7650000  24.0300000
  12.5820000  25.7340000  23.1190000  12.0880000  23.9130000  24.9910000
  10.9810000  21.8270000  25.3750000   9.9500000  20.9410000  23.6980000
  11.7270000  22.8900000  25.8210000  12.6690000  24.7500000  25.3520000
  10.7220000  21.0260000  26.0480000  12.0260000  22.9220000  26.8530000
   9.2310000  22.6430000  44.6360000   8.4940000  21.5930000  44.0670000
   9.6300000  23.6850000  43.7470000   9.6090000  22.7050000  46.0430000
   8.1920000  21.5990000  42.6910000   8.1640000  20.7790000  44.6870000
   9.3690000  23.6600000  42.3490000  10.3670000  24.7270000  44.3100000
  10.3390000  23.7730000  46.5430000   9.1790000  21.6490000  46.9130000
   8.6510000  22.5910000  41.8860000   7.5840000  20.8010000  42.2650000
   9.7200000  24.4280000  41.6790000  10.6770000  24.8160000  45.6400000
  10.7250000  25.5230000  43.6560000  10.6920000  23.7860000  47.9280000
   9.5380000  21.6310000  48.2730000   8.5700000  20.8540000  46.5200000
   8.4400000  22.5370000  40.8370000  11.1870000  25.7020000  46.0060000
  10.2930000  22.7420000  48.7510000  11.4340000  24.8490000  48.4690000
   9.2480000  20.8120000  48.9270000  10.6970000  22.7680000  50.1730000
  11.7950000  24.8890000  49.7850000  11.7350000  25.6520000  47.8200000
  11.4540000  23.8330000  50.6800000  10.3480000  21.7650000  51.0590000
  12.3650000  25.7340000  50.1480000  11.8710000  23.9130000  52.0200000
  10.7640000  21.8270000  52.4040000   9.7330000  20.9410000  50.7270000
  11.5100000  22.8900000  52.8500000  12.4520000  24.7500000  52.3810000
  10.5050000  21.0260000  53.0770000  11.8090000  22.9220000  53.8830000
   9.1220000  22.6430000  58.1500000   8.3860000  21.5930000  57.5820000
   9.5210000  23.6850000  57.2610000   9.5000000  22.7050000  59.5570000
   8.0840000  21.5990000  56.2060000   8.0560000  20.7790000  58.2020000
   9.2600000  23.6600000  55.8640000  10.2590000  24.7270000  57.8250000
  10.2310000  23.7730000  60.0570000   9.0710000  21.6490000  60.4280000
   8.5420000  22.5910000  55.4000000   7.4760000  20.8010000  55.7800000
   9.6120000  24.4280000  55.1930000  10.5690000  24.8160000  59.1550000
  10.6170000  25.5230000  57.1710000  10.5830000  23.7860000  61.4430000
   9.4300000  21.6310000  61.7870000   8.4620000  20.8540000  60.0340000
   8.3320000  22.5370000  54.3520000  11.0790000  25.7020000  59.5210000
  10.1840000  22.7420000  62.2660000  11.3250000  24.8490000  61.9830000
   9.1400000  20.8120000  62.4410000  10.5890000  22.7680000  63.6870000
  11.6860000  24.8890000  63.3000000  11.6260000  25.6520000  61.3340000
  11.3460000  23.8330000  64.1940000  10.2390000  21.7650000  64.5740000
  12.2560000  25.7340000  63.6630000  11.7620000  23.9130000  65.5350000
  10.6560000  21.8270000  65.9190000   9.6250000  20.9410000  64.2410000
  11.4020000  22.8900000  66.3650000  12.3440000  24.7500000  65.8960000
  10.3970000  21.0260000  66.5920000  11.7010000  22.9220000  67.3970000
   9.5560000  28.7970000   4.0920000   8.8200000  27.7470000   3.5230000
   9.9550000  29.8390000   3.2030000   9.9340000  28.8590000   5.4990000
   8.5180000  27.7530000   2.1470000   8.4900000  26.9330000   4.1440000
   9.6940000  29.8140000   1.8060000  10.6930000  30.8810000   3.7670000
  10.6650000  29.9270000   5.9990000   9.5050000  27.8030000   6.3690000
   8.9760000  28.7450000   1.3420000   7.9100000  26.9550000   1.7220000
  10.0460000  30.5820000   1.1350000  11.0030000  30.9700000   5.0960000
  11.0510000  31.6770000   3.1120000  11.0170000  29.9400000   7.3840000
   9.8640000  27.7850000   7.7290000   8.8960000  27.0080000   5.9760000
   8.7660000  28.6910000   0.2930000  11.5130000  31.8560000   5.4630000
  10.6180000  28.8960000   8.2070000  11.7590000  31.0030000   7.9250000
   9.5740000  26.9660000   8.3830000  11.0230000  28.9220000   9.6290000
  12.1200000  31.0430000   9.2410000  12.0600000  31.8060000   7.2760000
  11.7800000  29.9870000  10.1360000  10.6730000  27.9190000  10.5160000
  12.6900000  31.8880000   9.6050000  12.1960000  30.0670000  11.4770000
  11.0900000  27.9810000  11.8600000  10.0590000  27.0950000  10.1830000
  11.8360000  29.0440000  12.3060000  12.7780000  30.9040000  11.8370000
  10.8310000  27.1800000  12.5330000  12.1350000  29.0760000  13.3390000
   9.4480000  28.7970000  17.6070000   8.7110000  27.7470000  17.0380000
   9.8470000  29.8390000  16.7180000   9.8260000  28.8590000  19.0140000
   8.4090000  27.7530000  15.6620000   8.3810000  26.9330000  17.6580000
   9.5860000  29.8140000  15.3200000  10.5840000  30.8810000  17.2810000
  10.5560000  29.9270000  19.5140000   9.3960000  27.8030000  19.8840000
   8.8680000  28.7450000  14.8570000   7.8010000  26.9550000  15.2360000
   9.9370000  30.5820000  14.6500000  10.8940000  30.9700000  18.6110000
  10.9420000  31.6770000  16.6270000  10.9090000  29.9400000  20.8990000
   9.7550000  27.7850000  21.2440000   8.7870000  27.0080000  19.4910000
   8.6570000  28.6910000  13.8080000  11.4040000  31.8560000  18.9770000
  10.5100000  28.8960000  21.7220000  11.6510000  31.0030000  21.4400000
   9.4650000  26.9660000  21.8980000  10.9150000  28.9220000  23.1440000
  12.0120000  31.0430000  22.7560000  11.9520000  31.8060000  20.7910000
  11.6710000  29.9870000  23.6500000  10.5650000  27.9190000  24.0300000
  12.5820000  31.8880000  23.1190000  12.0880000  30.0670000  24.9910000
  10.9810000  27.9810000  25.3750000   9.9500000  27.0950000  23.6980000
  11.7270000  29.0440000  25.8210000  12.6690000  30.9040000  25.3520000
  10.7220000  27.1800000  26.0480000  12.0260000  29.0760000  26.8530000
   9.2310000  28.7970000  44.6360000   8.4940000  27.7470000  44.0670000
   9.6300000  29.8390000  43.7470000   9.6090000  28.8590000  46.0430000
   8.1920000  27.7530000  42.6910000   8.1640000  26.9330000  44.6870000
   9.3690000  29.8140000  42.3490000  10.3670000  30.8810000  44.3100000
  10.3390000  29.9270000  46.5430000   9.1790000  27.8030000  46.9130000
   8.6510000  28.7450000  41.8860000   7.5840000  26.9550000  42.2650000
   9.7200000  30.5820000  41.6790000  10.6770000  30.9700000  45.6400000
  10.7250000  31.6770000  43.6560000  10.6920000  29.9400000  47.9280000
   9.5380000  27.7850000  48.2730000   8.5700000  27.0080000  46.5200000
   8.4400000  28.6910000  40.8370000  11.1870000  31.8560000  46.0060000
  10.2930000  28.8960000  48.7510000  11.4340000  31.0030000  48.4690000
   9.2480000  26.9660000  48.9270000  10.6970000  28.9220000  50.1730000
  11.7950000  31.0430000  49.7850000  11.7350000  31.8060000  47.8200000
  11.4540000  29.9870000  50.6800000  10.3480000  27.9190000  51.0590000
  12.3650000  31.8880000  50.1480000  11.8710000  30.0670000  52.0200000
  10.7640000  27.9810000  52.4040000   9.7330000  27.0950000  50.7270000
  11.5100000  29.0440000  52.8500000  12.4520000  30.9040000  52.3810000
  10.5050000  27.1800000  53.0770000  11.8090000  29.0760000  53.8830000
   9.1220000  28.7970000  58.1500000   8.3860000  27.7470000  57.5820000
   9.5210000  29.8390000  57.2610000   9.5000000  28.8590000  59.5570000
   8.0840000  27.7530000  56.2060000   8.0560000  26.9330000  58.2020000
   9.2600000  29.8140000  55.8640000  10.2590000  30.8810000  57.8250000
  10.2310000  29.9270000  60.0570000   9.0710000  27.8030000  60.4280000
   8.5420000  28.7450000  55.4000000   7.4760000  26.9550000  55.7800000
   9.6120000  30.5820000  55.1930000  10.5690000  30.9700000  59.1550000
  10.6170000  31.6770000  57.1710000  10.5830000  29.9400000  61.4430000
   9.4300000  27.7850000  61.7870000   8.4620000  27.0080000  60.0340000
   8.3320000  28.6910000  54.3520000  11.0790000  31.8560000  59.5210000
  10.1840000  28.8960000  62.2660000  11.3250000  31.0030000  61.9830000
   9.1400000  26.9660000  62.4410000  10.5890000  28.9220000  63.6870000
  11.6860000  31.0430000  63.3000000  11.6260000  31.8060000  61.3340000
  11.3460000  29.9870000  64.1940000  10.2390000  27.9190000  64.5740000
  12.2560000  31.8880000  63.6630000  11.7620000  30.0670000  65.5350000
  10.6560000  27.9810000  65.9190000   9.6250000  27.0950000  64.2410000
  11.4020000  29.0440000  66.3650000  12.3440000  30.9040000  65.8960000
  10.3970000  27.1800000  66.5920000  11.7010000  29.0760000  67.3970000
   9.5560000  34.9510000   4.0920000   8.8200000  33.9010000   3.5230000
   9.9550000  35.9930000   3.2030000   9.9340000  35.0130000   5.4990000
   8.5180000  33.9070000   2.1470000   8.4900000  33.0870000   4.1440000
   9.6940000  35.9680000   1.8060000  10.6930000  37.0350000   3.7670000
  10.6650000  36.0810000   5.9990000   9.5050000  33.9570000   6.3690000
   8.9760000  34.8990000   1.3420000   7.9100000  33.1090000   1.7220000
  10.0460000  36.7360000   1.1350000  11.0030000  37.1240000   5.0960000
  11.0510000  37.8310000   3.1120000  11.0170000  36.0940000   7.3840000
   9.8640000  33.9390000   7.7290000   8.8960000  33.1620000   5.9760000
   8.7660000  34.8450000   0.2930000  11.5130000  38.0100000   5.4630000
  10.6180000  35.0500000   8.2070000  11.7590000  37.1570000   7.9250000
   9.5740000  33.1200000   8.3830000  11.0230000  35.0760000   9.6290000
  12.1200000  37.1970000   9.2410000  12.0600000  37.9600000   7.2760000
  11.7800000  36.1410000  10.1360000  10.6730000  34.0730000  10.5160000
  12.6900000  38.0420000   9.6050000  12.1960000  36.2210000  11.4770000
  11.0900000  34.1350000  11.8600000  10.0590000  33.2490000  10.1830000
  11.8360000  35.1980000  12.3060000  12.7780000  37.0580000  11.8370000
  10.8310000  33.3340000  12.5330000  12.1350000  35.2300000  13.3390000
   9.4480000  34.9510000  17.6070000   8.7110000  33.9010000  17.0380000
   9.8470000  35.9930000  16.7180000   9.8260000  35.0130000  19.0140000
   8.4090000  33.9070000  15.6620000   8.3810000  33.0870000  17.6580000
   9.5860000  35.9680000  15.3200000  10.5840000  37.0350000  17.2810000
  10.5560000  36.0810000  19.5140000   9.3960000  33.9570000  19.8840000
   8.8680000  34.8990000  14.8570000   7.8010000  33.1090000  15.2360000
   9.9370000  36.7360000  14.6500000  10.8940000  37.1240000  18.6110000
  10.9420000  37.8310000  16.6270000  10.9090000  36.0940000  20.8990000
   9.7550000  33.9390000  21.2440000   8.7870000  33.1620000  19.4910000
   8.6570000  34.8450000  13.8080000  11.4040000  38.0100000  18.9770000
  10.5100000  35.0500000  21.7220000  11.6510000  37.1570000  21.4400000
   9.4650000  33.1200000  21.8980000  10.9150000  35.0760000  23.1440000
  12.0120000  37.1970000  22.7560000  11.9520000  37.9600000  20.7910000
  11.6710000  36.1410000  23.6500000  10.5650000  34.0730000  24.0300000
  12.5820000  38.0420000  23.1190000  12.0880000  36.2210000  24.9910000
  10.9810000  34.1350000  25.3750000   9.9500000  33.2490000  23.6980000
  11.7270000  35.1980000  25.8210000  12.6690000  37.0580000  25.3520000
  10.7220000  33.3340000  26.0480000  12.0260000  35.2300000  26.8530000
   9.2310000  34.9510000  44.6360000   8.4940000  33.9010000  44.0670000
   9.6300000  35.9930000  43.7470000   9.6090000  35.0130000  46.0430000
   8.1920000  33.9070000  42.6910000   8.1640000  33.0870000  44.6870000
   9.3690000  35.9680000  42.3490000  10.3670000  37.0350000  44.3100000
  10.3390000  36.0810000  46.5430000   9.1790000  33.9570000  46.9130000
   8.6510000  34.8990000  41.8860000   7.5840000  33.1090000  42.2650000
   9.7200000  36.7360000  41.6790000  10.6770000  37.1240000  45.6400000
  10.7250000  37.8310000  43.6560000  10.6920000  36.0940000  47.9280000
   9.5380000  33.9390000  48.2730000   8.5700000  33.1620000  46.5200000
   8.4400000  34.8450000  40.8370000  11.1870000  38.0100000  46.0060000
  10.2930000  35.0500000  48.7510000  11.4340000  37.1570000  48.4690000
   9.2480000  33.1200000  48.9270000  10.6970000  35.0760000  50.1730000
  11.7950000  37.1970000  49.7850000  11.7350000  37.9600000  47.8200000
  11.4540000  36.1410000  50.6800000  10.3480000  34.0730000  51.0590000
  12.3650000  38.0420000  50.1480000  11.8710000  36.2210000  52.0200000
  10.7640000  34.1350000  52.4040000   9.7330000  33.2490000  50.7270000
  11.5100000  35.1980000  52.8500000  12.4520000  37.0580000  52.3810000
  10.5050000  33.3340000  53.0770000  11.8090000  35.2300000  53.8830000
   9.1220000  34.9510000  58.1500000   8.3860000  33.9010000  57.5820000
   9.5210000  35.9930000  57.2610000   9.5000000  35.0130000  59.5570000
   8.0840000  33.9070000  56.2060000   8.0560000  33.0870000  58.2020000
   9.2600000  35.9680000  55.8640000  10.2590000  37.0350000  57.8250000
  10.2310000  36.0810000  60.0570000   9.0710000  33.9570000  60.4280000
   8.5420000  34.8990000  55.4000000   7.4760000  33.1090000  55.7800000
   9.6120000  36.7360000  55.1930000  10.5690000  37.1240000  59.1550000
  10.6170000  37.8310000  57.1710000  10.5830000  36.0940000  61.4430000
   9.4300000  33.9390000  61.7870000   8.4620000  33.1620000  60.0340000
   8.3320000  34.8450000  54.3520000  11.0790000  38.0100000  59.5210000
  10.1840000  35.0500000  62.2660000  11.3250000  37.1570000  61.9830000
   9.1400000  33.1200000  62.4410000  10.5890000  35.0760000  63.6870000
  11.6860000  37.1970000  63.3000000  11.6260000  37.9600000  61.3340000
  11.3460000  36.1410000  64.1940000  10.2390000  34.0730000  64.5740000
  12.2560000  38.0420000  63.6630000  11.7620000  36.2210000  65.5350000
  10.6560000  34.1350000  65.9190000   9.6250000  33.2490000  64.2410000
  11.4020000  35.1980000  66.3650000  12.3440000  37.0580000  65.8960000
  10.3970000  33.3340000  66.5920000  11.7010000  35.2300000  67.3970000
   9.5560000  41.1050000   4.0920000   8.8200000  40.0550000   3.5230000
   9.9550000  42.1470000   3.2030000   9.9340000  41.1670000   5.4990000
   8.5180000  40.0610000   2.1470000   8.4900000  39.2410000   4.1440000
   9.6940000  42.1220000   1.8060000  10.6930000  43.1890000   3.7670000
  10.6650000  42.2350000   5.9990000   9.5050000  40.1110000   6.3690000
   8.9760000  41.0530000   1.3420000   7.9100000  39.2630000   1.7220000
  10.0460000  42.8900000   1.1350000  11.0030000  43.2780000   5.0960000
  11.0510000  43.9850000   3.1120000  11.0170000  42.2480000   7.3840000
   9.8640000  40.0930000   7.7290000   8.8960000  39.3160000   5.9760000
   8.7660000  40.9990000   0.2930000  11.5130000  44.1640000   5.4630000
  10.6180000  41.2040000   8.2070000  11.7590000  43.3110000   7.9250000
   9.5740000  39.2740000   8.3830000  11.0230000  41.2300000   9.6290000
  12.1200000  43.3510000   9.2410000  12.0600000  44.1140000   7.2760000
  11.7800000  42.2950000  10.1360000  10.6730000  40.2270000  10.5160000
  12.6900000  44.1960000   9.6050000  12.1960000  42.3750000  11.4770000
  11.0900000  40.2890000  11.8600000  10.0590000  39.4030000  10.1830000
  11.8360000  41.3520000  12.3060000  12.7780000  43.2120000  11.8370000
  10.8310000  39.4880000  12.5330000  12.1350000  41.3840000  13.3390000
   9.4480000  41.1050000  17.6070000   8.7110000  40.0550000  17.0380000
   9.8470000  42.1470000  16.7180000   9.8260000  41.1670000  19.0140000
   8.4090000  40.0610000  15.6620000   8.3810000  39.2410000  17.6580000
   9.5860000  42.1220000  15.3200000  10.5840000  43.1890000  17.2810000
  10.5560000  42.2350000  19.5140000   9.3960000  40.1110000  19.8840000
   8.8680000  41.0530000  14.8570000   7.8010000  39.2630000  15.2360000
   9.9370000  42.8900000  14.6500000  10.8940000  43.2780000  18.6110000
  10.9420000  43.9850000  16.6270000  10.9090000  42.2480000  20.8990000
   9.7550000  40.0930000  21.2440000   8.7870000  39.3160000  19.4910000
   8.6570000  40.9990000  13.8080000  11.4040000  44.1640000  18.9770000
  10.5100000  41.2040000  21.7220000  11.6510000  43.3110000  21.4400000
   9.4650000  39.2740000  21.8980000  10.9150000  41.2300000  23.1440000
  12.0120000  43.3510000  22.7560000  11.9520000  44.1140000  20.7910000
  11.6710000  42.2950000  23.6500000  10.5650000  40.2270000  24.0300000
  12.5820000  44.1960000  23.1190000  12.0880000  42.3750000  24.9910000
  10.9810000  40.2890000  25.3750000   9.9500000  39.4030000  23.6980000
  11.7270000  41.3520000  25.8210000  12.6690000  43.2120000  25.3520000
  10.7220000  39.4880000  26.0480000  12.0260000  41.3840000  26.8530000
   9.2310000  41.1050000  44.6360000   8.4940000  40.0550000  44.0670000
   9.6300000  42.1470000  43.7470000   9.6090000  41.1670000  46.0430000
   8.1920000  40.0610000  42.6910000   8.1640000  39.2410000  44.6870000
   9.3690000  42.1220000  42.3490000  10.3670000  43.1890000  44.3100000
  10.3390000  42.2350000  46.5430000   9.1790000  40.1110000  46.9130000
   8.6510000  41.0530000  41.8860000   7.5840000  39.2630000  42.2650000
   9.7200000  42.8900000  41.6790000  10.6770000  43.2780000  45.6400000
  10.7250000  43.9850000  43.6560000  10.6920000  42.2480000  47.9280000
   9.5380000  40.0930000  48.2730000   8.5700000  39.3160000  46.5200000
   8.4400000  40.9990000  40.8370000  11.1870000  44.1640000  46.0060000
  10.2930000  41.2040000  48.7510000  11.4340000  43.3110000  48.4690000
   9.2480000  39.2740000  48.9270000  10.6970000  41.2300000  50.1730000
  11.7950000  43.3510000  49.7850000  11.7350000  44.1140000  47.8200000
  11.4540000  42.2950000  50.6800000  10.3480000  40.2270000  51.0590000
  12.3650000  44.1960000  50.1480000  11.8710000  42.3750000  52.0200000
  10.7640000  40.2890000  52.4040000   9.7330000  39.4030000  50.7270000
  11.5100000  41.3520000  52.8500000  12.4520000  43.2120000  52.3810000
  10.5050000  39.4880000  53.0770000  11.8090000  41.3840000  53.8830000
   9.1220000  41.1050000  58.1500000   8.3860000  40.0550000  57.5820000
   9.5210000  42.1470000  57.2610000   9.5000000  41.1670000  59.5570000
   8.0840000  40.0610000  56.2060000   8.0560000  39.2410000  58.2020000
   9.2600000  42.1220000  55.8640000  10.2590000  43.1890000  57.8250000
  10.2310000  42.2350000  60.0570000   9.0710000  40.1110000  60.4280000
   8.5420000  41.0530000  55.4000000   7.4760000  39.2630000  55.7800000
   9.6120000  42.8900000  55.1930000  10.5690000  43.2780000  59.1550000
  10.6170000  43.9850000  57.1710000  10.5830000  42.2480000  61.4430000
   9.4300000  40.0930000  61.7870000   8.4620000  39.3160000  60.0340000
   8.3320000  40.9990000  54.3520000  11.0790000  44.1640000  59.5210000
  10.1840000  41.2040000  62.2660000  11.3250000  43.3110000  61.9830000
   9.1400000  39.2740000  62.4410000  10.5890000  41.2300000  63.6870000
  11.6860000  43.3510000  63.3000000  11.6260000  44.1140000  61.3340000
  11.3460000  42.2950000  64.1940000  10.2390000  40.2270000  64.5740000
  12.2560000  44.1960000  63.6630000  11.7620000  42.3750000  65.5350000
  10.6560000  40.2890000  65.9190000   9.6250000  39.4030000  64.2410000
  11.4020000  41.3520000  66.3650000  12.3440000  43.2120000  65.8960000
  10.3970000  39.4880000  66.5920000  11.7010000  41.3840000  67.3970000
   9.3390000   4.1810000  31.1210000   8.6030000   3.1310000  30.5520000
   9.7380000   5.2230000  30.2320000   9.7170000   4.2430000  32.5280000
   8.3010000   3.1370000  29.1770000   8.2730000   2.3170000  31.1730000
   9.4770000   5.1980000  28.8350000  10.4760000   6.2650000  30.7960000
  10.4480000   5.3110000  33.0280000   9.2880000   3.1870000  33.3990000
   8.7590000   4.1290000  28.3710000   7.6930000   2.3390000  28.7510000
   9.8290000   5.9660000  28.1640000  10.7860000   6.3540000  32.1250000
  10.8340000   7.0610000  30.1420000  10.8000000   5.3240000  34.4130000
   9.6470000   3.1690000  34.7580000   8.6790000   2.3920000  33.0050000
   8.5490000   4.0750000  27.3220000  11.2960000   7.2400000  32.4920000
  10.4010000   4.2800000  35.2370000  11.5420000   6.3870000  34.9540000
   9.3570000   2.3500000  35.4120000  10.8060000   4.3060000  36.6580000
  11.9030000   6.4270000  36.2700000  11.8430000   7.1900000  34.3050000
  11.5630000   5.3710000  37.1650000  10.4560000   3.3030000  37.5450000
  12.4730000   7.2720000  36.6340000  11.9790000   5.4510000  38.5060000
  10.8730000   3.3650000  38.8900000   9.8420000   2.4790000  37.2120000
  11.6190000   4.4280000  39.3350000  12.5610000   6.2880000  38.8670000
  10.6140000   2.5640000  39.5630000  11.9180000   4.4600000  40.3680000
   9.3390000  10.3350000  31.1210000   8.6030000   9.2850000  30.5520000
   9.7380000  11.3770000  30.2320000   9.7170000  10.3970000  32.5280000
   8.3010000   9.2910000  29.1770000   8.2730000   8.4710000  31.1730000
   9.4770000  11.3520000  28.8350000  10.4760000  12.4190000  30.7960000
  10.4480000  11.4650000  33.0280000   9.2880000   9.3410000  33.3990000
   8.7590000  10.2830000  28.3710000   7.6930000   8.4930000  28.7510000
   9.8290000  12.1200000  28.1640000  10.7860000  12.5080000  32.1250000
  10.8340000  13.2150000  30.1420000  10.8000000  11.4780000  34.4130000
   9.6470000   9.3230000  34.7580000   8.6790000   8.5460000  33.0050000
   8.5490000  10.2290000  27.3220000  11.2960000  13.3940000  32.4920000
  10.4010000  10.4340000  35.2370000  11.5420000  12.5410000  34.9540000
   9.3570000   8.5040000  35.4120000  10.8060000  10.4600000  36.6580000
  11.9030000  12.5810000  36.2700000  11.8430000  13.3440000  34.3050000
  11.5630000  11.5250000  37.1650000  10.4560000   9.4570000  37.5450000
  12.4730000  13.4260000  36.6340000  11.9790000  11.6050000  38.5060000
  10.8730000   9.5190000  38.8900000   9.8420000   8.6330000  37.2120000
  11.6190000  10.5820000  39.3350000  12.5610000  12.4420000  38.8670000
  10.6140000   8.7180000  39.5630000  11.9180000  10.6140000  40.3680000
   9.3390000  16.4890000  31.1210000   8.6030000  15.4390000  30.5520000
   9.7380000  17.5310000  30.2320000   9.7170000  16.5510000  32.5280000
   8.3010000  15.4450000  29.1770000   8.2730000  14.6250000  31.1730000
   9.4770000  17.5060000  28.8350000  10.4760000  18.5730000  30.7960000
  10.4480000  17.6190000  33.0280000   9.2880000  15.4950000  33.3990000
   8.7590000  16.4370000  28.3710000   7.6930000  14.6470000  28.7510000
   9.8290000  18.2740000  28.1640000  10.7860000  18.6620000  32.1250000
  10.8340000  19.3690000  30.1420000  10.8000000  17.6320000  34.4130000
   9.6470000  15.4770000  34.7580000   8.6790000  14.7000000  33.0050000
   8.5490000  16.3830000  27.3220000  11.2960000  19.5480000  32.4920000
  10.4010000  16.5880000  35.2370000  11.5420000  18.6950000  34.9540000
   9.3570000  14.6580000  35.4120000  10.8060000  16.6140000  36.6580000
  11.9030000  18.7350000  36.2700000  11.8430000  19.4980000  34.3050000
  11.5630000  17.6790000  37.1650000  10.4560000  15.6110000  37.5450000
  12.4730000  19.5800000  36.6340000  11.9790000  17.7590000  38.5060000
  10.8730000  15.6730000  38.8900000   9.8420000  14.7870000  37.2120000
  11.6190000  16.7360000  39.3350000  12.5610000  18.5960000  38.8670000
  10.6140000  14.8720000  39.5630000  11.9180000  16.7680000  40.3680000
   9.3390000  22.6430000  31.1210000   8.6030000  21.5930000  30.5520000
   9.7380000  23.6850000  30.2320000   9.7170000  22.7050000  32.5280000
   8.3010000  21.5990000  29.1770000   8.2730000  20.7790000  31.1730000
   9.4770000  23.6600000  28.8350000  10.4760000  24.7270000  30.7960000
  10.4480000  23.7730000  33.0280000   9.2880000  21.6490000  33.3990000
   8.7590000  22.5910000  28.3710000   7.6930000  20.8010000  28.7510000
   9.8290000  24.4280000  28.1640000  10.7860000  24.8160000  32.1250000
  10.8340000  25.5230000  30.1420000  10.8000000  23.7860000  34.4130000
   9.6470000  21.6310000  34.7580000   8.6790000  20.8540000  33.0050000
   8.5490000  22.5370000  27.3220000  11.2960000  25.7020000  32.4920000
  10.4010000  22.7420000  35.2370000  11.5420000  24.8490000  34.9540000
   9.3570000  20.8120000  35.4120000  10.8060000  22.7680000  36.6580000
  11.9030000  24.8890000  36.2700000  11.8430000  25.6520000  34.3050000
  11.5630000  23.8330000  37.1650000  10.4560000  21.7650000  37.5450000
  12.4730000  25.7340000  36.6340000  11.9790000  23.9130000  38.5060000
  10.8730000  21.8270000  38.8900000   9.8420000  20.9410000  37.2120000
  11.6190000  22.8900000  39.3350000  12.5610000  24.7500000  38.8670000
  10.6140000  21.0260000  39.5630000  11.9180000  22.9220000  40.3680000
   9.3390000  28.7970000  31.1210000   8.6030000  27.7470000  30.5520000
   9.7380000  29.8390000  30.2320000   9.7170000  28.8590000  32.5280000
   8.3010000  27.7530000  29.1770000   8.2730000  26.9330000  31.1730000
   9.4770000  29.8140000  28.8350000  10.4760000  30.8810000  30.7960000
  10.4480000  29.9270000  33.0280000   9.2880000  27.8030000  33.3990000
   8.7590000  28.7450000  28.3710000   7.6930000  26.9550000  28.7510000
   9.8290000  30.5820000  28.1640000  10.7860000  30.9700000  32.1250000
  10.8340000  31.6770000  30.1420000  10.8000000  29.9400000  34.4130000
   9.6470000  27.7850000  34.7580000   8.6790000  27.0080000  33.0050000
   8.5490000  28.6910000  27.3220000  11.2960000  31.8560000  32.4920000
  10.4010000  28.8960000  35.2370000  11.5420000  31.0030000  34.9540000
   9.3570000  26.9660000  35.4120000  10.8060000  28.9220000  36.6580000
  11.9030000  31.0430000  36.2700000  11.8430000  31.8060000  34.3050000
  11.5630000  29.9870000  37.1650000  10.4560000  27.9190000  37.5450000
  12.4730000  31.8880000  36.6340000  11.9790000  30.0670000  38.5060000
  10.8730000  27.9810000  38.8900000   9.8420000  27.0950000  37.2120000
  11.6190000  29.0440000  39.3350000  12.5610000  30.9040000  38.8670000
  10.6140000  27.1800000  39.5630000  11.9180000  29.0760000  40.3680000
   9.3390000  34.9510000  31.1210000   8.6030000  33.9010000  30.5520000
   9.7380000  35.9930000  30.2320000   9.7170000  35.0130000  32.5280000
   8.3010000  33.9070000  29.1770000   8.2730000  33.0870000  31.1730000
   9.4770000  35.9680000  28.8350000  10.4760000  37.0350000  30.7960000
  10.4480000  36.0810000  33.0280000   9.2880000  33.9570000  33.3990000
   8.7590000  34.8990000  28.3710000   7.6930000  33.1090000  28.7510000
   9.8290000  36.7360000  28.1640000  10.7860000  37.1240000  32.1250000
  10.8340000  37.8310000  30.1420000  10.8000000  36.0940000  34.4130000
   9.6470000  33.9390000  34.7580000   8.6790000  33.1620000  33.0050000
   8.5490000  34.8450000  27.3220000  11.2960000  38.0100000  32.4920000
  10.4010000  35.0500000  35.2370000  11.5420000  37.1570000  34.9540000
   9.3570000  33.1200000  35.4120000  10.8060000  35.0760000  36.6580000
  11.9030000  37.1970000  36.2700000  11.8430000  37.9600000  34.3050000
  11.5630000  36.1410000  37.1650000  10.4560000  34.0730000  37.5450000
  12.4730000  38.0420000  36.6340000  11.9790000  36.2210000  38.5060000
  10.8730000  34.1350000  38.8900000   9.8420000  33.2490000  37.2120000
  11.6190000  35.1980000  39.3350000  12.5610000  37.0580000  38.8670000
  10.6140000  33.3340000  39.5630000  11.9180000  35.2300000  40.3680000
   9.3390000  41.1050000  31.1210000   8.6030000  40.0550000  30.5520000
   9.7380000  42.1470000  30.2320000   9.7170000  41.1670000  32.5280000
   8.3010000  40.0610000  29.1770000   8.2730000  39.2410000  31.1730000
   9.4770000  42.1220000  28.8350000  10.4760000  43.1890000  30.7960000
  10.4480000  42.2350000  33.0280000   9.2880000  40.1110000  33.3990000
   8.7590000  41.0530000  28.3710000   7.6930000  39.2630000  28.7510000
   9.8290000  42.8900000  28.1640000  10.7860000  43.2780000  32.1250000
  10.8340000  43.9850000  30.1420000  10.8000000  42.2480000  34.4130000
   9.6470000  40.0930000  34.7580000   8.6790000  39.3160000  33.0050000
   8.5490000  40.9990000  27.3220000  11.2960000  44.1640000  32.4920000
  10.4010000  41.2040000  35.2370000  11.5420000  43.3110000  34.9540000
   9.3570000  39.2740000  35.4120000  10.8060000  41.2300000  36.6580000
  11.9030000  43.3510000  36.2700000  11.8430000  44.1140000  34.3050000
  11.5630000  42.2950000  37.1650000  10.4560000  40.2270000  37.5450000
  12.4730000  44.1960000  36.6340000  11.9790000  42.3750000  38.5060000
  10.8730000  40.2890000  38.8900000   9.8420000  39.4030000  37.2120000
  11.6190000  41.3520000  39.3350000  12.5610000  43.2120000  38.8670000
  10.6140000  39.4880000  39.5630000  11.9180000  41.3840000  40.3680000
  15.5580000   7.2580000  36.4510000  16.2950000   6.2080000  37.0200000
  15.1590000   8.3000000  37.3410000  15.1800000   7.3200000  35.0450000
  16.5970000   6.2140000  38.3960000  16.6250000   5.3940000  36.4000000
  15.4200000   8.2750000  38.7380000  14.4220000   9.3420000  36.7770000
  14.4500000   8.3880000  34.5450000  15.6100000   6.2640000  34.1740000
  16.1380000   7.2060000  39.2020000  17.2050000   5.4160000  38.8220000
  15.0690000   9.0430000  39.4080000  14.1120000   9.4310000  35.4470000
  14.0640000  10.1380000  37.4310000  14.0970000   8.4010000  33.1590000
  15.2510000   6.2460000  32.8150000  16.2190000   5.4690000  34.5680000
  16.3490000   7.1520000  40.2500000  13.6020000  10.3170000  35.0810000
  14.4960000   7.3570000  32.3360000  13.3550000   9.4640000  32.6190000
  15.5410000   5.4270000  32.1610000  14.0910000   7.3830000  30.9150000
  12.9940000   9.5040000  31.3020000  13.0540000  10.2670000  33.2670000
  13.3350000   8.4480000  30.4080000  14.4410000   6.3800000  30.0280000
  12.4240000  10.3490000  30.9390000  12.9180000   8.5280000  29.0670000
  14.0250000   6.4420000  28.6830000  15.0560000   5.5560000  30.3600000
  13.2790000   7.5050000  28.2370000  12.3370000   9.3650000  28.7060000
  14.2840000   5.6410000  28.0100000  12.9800000   7.5370000  27.2050000
  15.5580000  13.4120000  36.4510000  16.2950000  12.3620000  37.0200000
  15.1590000  14.4540000  37.3410000  15.1800000  13.4740000  35.0450000
  16.5970000  12.3680000  38.3960000  16.6250000  11.5480000  36.4000000
  15.4200000  14.4290000  38.7380000  14.4220000  15.4960000  36.7770000
  14.4500000  14.5420000  34.5450000  15.6100000  12.4180000  34.1740000
  16.1380000  13.3600000  39.2020000  17.2050000  11.5700000  38.8220000
  15.0690000  15.1970000  39.4080000  14.1120000  15.5850000  35.4470000
  14.0640000  16.2920000  37.4310000  14.0970000  14.5550000  33.1590000
  15.2510000  12.4000000  32.8150000  16.2190000  11.6230000  34.5680000
  16.3490000  13.3060000  40.2500000  13.6020000  16.4710000  35.0810000
  14.4960000  13.5110000  32.3360000  13.3550000  15.6180000  32.6190000
  15.5410000  11.5810000  32.1610000  14.0910000  13.5370000  30.9150000
  12.9940000  15.6580000  31.3020000  13.0540000  16.4210000  33.2670000
  13.3350000  14.6020000  30.4080000  14.4410000  12.5340000  30.0280000
  12.4240000  16.5030000  30.9390000  12.9180000  14.6820000  29.0670000
  14.0250000  12.5960000  28.6830000  15.0560000  11.7100000  30.3600000
  13.2790000  13.6590000  28.2370000  12.3370000  15.5190000  28.7060000
  14.2840000  11.7950000  28.0100000  12.9800000  13.6910000  27.2050000
  15.5580000  19.5660000  36.4510000  16.2950000  18.5160000  37.0200000
  15.1590000  20.6080000  37.3410000  15.1800000  19.6280000  35.0450000
  16.5970000  18.5220000  38.3960000  16.6250000  17.7020000  36.4000000
  15.4200000  20.5830000  38.7380000  14.4220000  21.6500000  36.7770000
  14.4500000  20.6960000  34.5450000  15.6100000  18.5720000  34.1740000
  16.1380000  19.5140000  39.2020000  17.2050000  17.7240000  38.8220000
  15.0690000  21.3510000  39.4080000  14.1120000  21.7390000  35.4470000
  14.0640000  22.4460000  37.4310000  14.0970000  20.7090000  33.1590000
  15.2510000  18.5540000  32.8150000  16.2190000  17.7770000  34.5680000
  16.3490000  19.4600000  40.2500000  13.6020000  22.6250000  35.0810000
  14.4960000  19.6650000  32.3360000  13.3550000  21.7720000  32.6190000
  15.5410000  17.7350000  32.1610000  14.0910000  19.6910000  30.9150000
  12.9940000  21.8120000  31.3020000  13.0540000  22.5750000  33.2670000
  13.3350000  20.7560000  30.4080000  14.4410000  18.6880000  30.0280000
  12.4240000  22.6570000  30.9390000  12.9180000  20.8360000  29.0670000
  14.0250000  18.7500000  28.6830000  15.0560000  17.8640000  30.3600000
  13.2790000  19.8130000  28.2370000  12.3370000  21.6730000  28.7060000
  14.2840000  17.9490000  28.0100000  12.9800000  19.8450000  27.2050000
  15.5580000  25.7200000  36.4510000  16.2950000  24.6700000  37.0200000
  15.1590000  26.7620000  37.3410000  15.1800000  25.7820000  35.0450000
  16.5970000  24.6760000  38.3960000  16.6250000  23.8560000  36.4000000
  15.4200000  26.7370000  38.7380000  14.4220000  27.8040000  36.7770000
  14.4500000  26.8500000  34.5450000  15.6100000  24.7260000  34.1740000
  16.1380000  25.6680000  39.2020000  17.2050000  23.8780000  38.8220000
  15.0690000  27.5050000  39.4080000  14.1120000  27.8930000  35.4470000
  14.0640000  28.6000000  37.4310000  14.0970000  26.8630000  33.1590000
  15.2510000  24.7080000  32.8150000  16.2190000  23.9310000  34.5680000
  16.3490000  25.6140000  40.2500000  13.6020000  28.7790000  35.0810000
  14.4960000  25.8190000  32.3360000  13.3550000  27.9260000  32.6190000
  15.5410000  23.8890000  32.1610000  14.0910000  25.8450000  30.9150000
  12.9940000  27.9660000  31.3020000  13.0540000  28.7290000  33.2670000
  13.3350000  26.9100000  30.4080000  14.4410000  24.8420000  30.0280000
  12.4240000  28.8110000  30.9390000  12.9180000  26.9900000  29.0670000
  14.0250000  24.9040000  28.6830000  15.0560000  24.0180000  30.3600000
  13.2790000  25.9670000  28.2370000  12.3370000  27.8270000  28.7060000
  14.2840000  24.1030000  28.0100000  12.9800000  25.9990000  27.2050000
  15.5580000  31.8740000  36.4510000  16.2950000  30.8240000  37.0200000
  15.1590000  32.9160000  37.3410000  15.1800000  31.9360000  35.0450000
  16.5970000  30.8300000  38.3960000  16.6250000  30.0100000  36.4000000
  15.4200000  32.8910000  38.7380000  14.4220000  33.9580000  36.7770000
  14.4500000  33.0040000  34.5450000  15.6100000  30.8800000  34.1740000
  16.1380000  31.8220000  39.2020000  17.2050000  30.0320000  38.8220000
  15.0690000  33.6590000  39.4080000  14.1120000  34.0470000  35.4470000
  14.0640000  34.7540000  37.4310000  14.0970000  33.0170000  33.1590000
  15.2510000  30.8620000  32.8150000  16.2190000  30.0850000  34.5680000
  16.3490000  31.7680000  40.2500000  13.6020000  34.9330000  35.0810000
  14.4960000  31.9730000  32.3360000  13.3550000  34.0800000  32.6190000
  15.5410000  30.0430000  32.1610000  14.0910000  31.9990000  30.9150000
  12.9940000  34.1200000  31.3020000  13.0540000  34.8830000  33.2670000
  13.3350000  33.0640000  30.4080000  14.4410000  30.9960000  30.0280000
  12.4240000  34.9650000  30.9390000  12.9180000  33.1440000  29.0670000
  14.0250000  31.0580000  28.6830000  15.0560000  30.1720000  30.3600000
  13.2790000  32.1210000  28.2370000  12.3370000  33.9810000  28.7060000
  14.2840000  30.2570000  28.0100000  12.9800000  32.1530000  27.2050000
  15.5580000  38.0280000  36.4510000  16.2950000  36.9780000  37.0200000
  15.1590000  39.0700000  37.3410000  15.1800000  38.0900000  35.0450000
  16.5970000  36.9840000  38.3960000  16.6250000  36.1640000  36.4000000
  15.4200000  39.0450000  38.7380000  14.4220000  40.1120000  36.7770000
  14.4500000  39.1580000  34.5450000  15.6100000  37.0340000  34.1740000
  16.1380000  37.9760000  39.2020000  17.2050000  36.1860000  38.8220000
  15.0690000  39.8130000  39.4080000  14.1120000  40.2010000  35.4470000
  14.0640000  40.9080000  37.4310000  14.0970000  39.1710000  33.1590000
  15.2510000  37.0160000  32.8150000  16.2190000  36.2390000  34.5680000
  16.3490000  37.9220000  40.2500000  13.6020000  41.0870000  35.0810000
  14.4960000  38.1270000  32.3360000  13.3550000  40.2340000  32.6190000
  15.5410000  36.1970000  32.1610000  14.0910000  38.1530000  30.9150000
  12.9940000  40.2740000  31.3020000  13.0540000  41.0370000  33.2670000
  13.3350000  39.2180000  30.4080000  14.4410000  37.1500000  30.0280000
  12.4240000  41.1190000  30.9390000  12.9180000  39.2980000  29.0670000
  14.0250000  37.2120000  28.6830000  15.0560000  36.3260000  30.3600000
  13.2790000  38.2750000  28.2370000  12.3370000  40.1350000  28.7060000
  14.2840000  36.4110000  28.0100000  12.9800000  38.3070000  27.2050000
  15.7750000   7.2580000   9.4220000  16.5120000   6.2080000   9.9910000
  15.3760000   8.3000000  10.3120000  15.3970000   7.3200000   8.0150000
  16.8140000   6.2140000  11.3670000  16.8420000   5.3940000   9.3710000
  15.6370000   8.2750000  11.7090000  14.6390000   9.3420000   9.7480000
  14.6670000   8.3880000   7.5150000  15.8270000   6.2640000   7.1450000
  16.3550000   7.2060000  12.1730000  17.4220000   5.4160000  11.7930000
  15.2860000   9.0430000  12.3790000  14.3290000   9.4310000   8.4180000
  14.2810000  10.1380000  10.4020000  14.3140000   8.4010000   6.1300000
  15.4680000   6.2460000   5.7860000  16.4360000   5.4690000   7.5380000
  16.5660000   7.1520000  13.2210000  13.8190000  10.3170000   8.0520000
  14.7130000   7.3570000   5.3070000  13.5720000   9.4640000   5.5900000
  15.7580000   5.4270000   5.1310000  14.3080000   7.3830000   3.8850000
  13.2110000   9.5040000   4.2730000  13.2710000  10.2670000   6.2380000
  13.5520000   8.4480000   3.3790000  14.6580000   6.3800000   2.9990000
  12.6410000  10.3490000   3.9100000  13.1350000   8.5280000   2.0380000
  14.2420000   6.4420000   1.6540000  15.2730000   5.5560000   3.3310000
  13.4960000   7.5050000   1.2080000  12.5540000   9.3650000   1.6770000
  14.5010000   5.6410000   0.9810000  13.1970000   7.5370000   0.1760000
  15.6670000   7.2580000  22.9370000  16.4030000   6.2080000  23.5060000
  15.2680000   8.3000000  23.8260000  15.2890000   7.3200000  21.5300000
  16.7050000   6.2140000  24.8820000  16.7330000   5.3940000  22.8860000
  15.5290000   8.2750000  25.2240000  14.5300000   9.3420000  23.2630000
  14.5580000   8.3880000  21.0300000  15.7180000   6.2640000  20.6600000
  16.2470000   7.2060000  25.6870000  17.3130000   5.4160000  25.3070000
  15.1770000   9.0430000  25.8940000  14.2200000   9.4310000  21.9330000
  14.1720000  10.1380000  23.9170000  14.2060000   8.4010000  19.6450000
  15.3590000   6.2460000  19.3000000  16.3270000   5.4690000  21.0530000
  16.4570000   7.1520000  26.7360000  13.7100000  10.3170000  21.5670000
  14.6050000   7.3570000  18.8220000  13.4640000   9.4640000  19.1040000
  15.6490000   5.4270000  18.6460000  14.2000000   7.3830000  17.4000000
  13.1030000   9.5040000  17.7880000  13.1630000  10.2670000  19.7530000
  13.4430000   8.4480000  16.8930000  14.5500000   6.3800000  16.5130000
  12.5330000  10.3490000  17.4240000  13.0270000   8.5280000  15.5530000
  14.1330000   6.4420000  15.1690000  15.1640000   5.5560000  16.8460000
  13.3870000   7.5050000  14.7230000  12.4450000   9.3650000  15.1920000
  14.3920000   5.6410000  14.4960000  13.0880000   7.5370000  13.6900000
  15.4500000   7.2580000  49.9660000  16.1860000   6.2080000  50.5350000
  15.0510000   8.3000000  50.8550000  15.0720000   7.3200000  48.5590000
  16.4880000   6.2140000  51.9110000  16.5160000   5.3940000  49.9150000
  15.3120000   8.2750000  52.2530000  14.3130000   9.3420000  50.2920000
  14.3410000   8.3880000  48.0590000  15.5010000   6.2640000  47.6890000
  16.0300000   7.2060000  52.7160000  17.0960000   5.4160000  52.3370000
  14.9600000   9.0430000  52.9230000  14.0030000   9.4310000  48.9620000
  13.9550000  10.1380000  50.9460000  13.9890000   8.4010000  46.6740000
  15.1420000   6.2460000  46.3290000  16.1100000   5.4690000  48.0820000
  16.2400000   7.1520000  53.7650000  13.4930000  10.3170000  48.5960000
  14.3880000   7.3570000  45.8510000  13.2470000   9.4640000  46.1330000
  15.4320000   5.4270000  45.6750000  13.9830000   7.3830000  44.4290000
  12.8860000   9.5040000  44.8170000  12.9460000  10.2670000  46.7820000
  13.2260000   8.4480000  43.9220000  14.3330000   6.3800000  43.5430000
  12.3160000  10.3490000  44.4530000  12.8100000   8.5280000  42.5820000
  13.9160000   6.4420000  42.1980000  14.9470000   5.5560000  43.8750000
  13.1700000   7.5050000  41.7520000  12.2280000   9.3650000  42.2210000
  14.1750000   5.6410000  41.5250000  12.8710000   7.5370000  40.7190000
  15.3410000   7.2580000  63.4810000  16.0780000   6.2080000  64.0500000
  14.9420000   8.3000000  64.3700000  14.9630000   7.3200000  62.0740000
  16.3800000   6.2140000  65.4250000  16.4070000   5.3940000  63.4290000
  15.2030000   8.2750000  65.7670000  14.2050000   9.3420000  63.8060000
  14.2330000   8.3880000  61.5740000  15.3930000   6.2640000  61.2030000
  15.9210000   7.2060000  66.2310000  16.9880000   5.4160000  65.8510000
  14.8520000   9.0430000  66.4380000  13.8950000   9.4310000  62.4760000
  13.8470000  10.1380000  64.4600000  13.8800000   8.4010000  60.1880000
  15.0340000   6.2460000  59.8440000  16.0020000   5.4690000  61.5970000
  16.1320000   7.1520000  67.2800000  13.3850000  10.3170000  62.1100000
  14.2790000   7.3570000  59.3650000  13.1380000   9.4640000  59.6480000
  15.3240000   5.4270000  59.1900000  13.8740000   7.3830000  57.9440000
  12.7770000   9.5040000  58.3320000  12.8370000  10.2670000  60.2970000
  13.1180000   8.4480000  57.4370000  14.2240000   6.3800000  57.0570000
  12.2070000  10.3490000  57.9680000  12.7010000   8.5280000  56.0960000
  13.8080000   6.4420000  55.7120000  14.8390000   5.5560000  57.3900000
  13.0620000   7.5050000  55.2660000  12.1200000   9.3650000  55.7350000
  14.0670000   5.6410000  55.0390000  12.7630000   7.5370000  54.2340000
  15.7750000  13.4120000   9.4220000  16.5120000  12.3620000   9.9910000
  15.3760000  14.4540000  10.3120000  15.3970000  13.4740000   8.0150000
  16.8140000  12.3680000  11.3670000  16.8420000  11.5480000   9.3710000
  15.6370000  14.4290000  11.7090000  14.6390000  15.4960000   9.7480000
  14.6670000  14.5420000   7.5150000  15.8270000  12.4180000   7.1450000
  16.3550000  13.3600000  12.1730000  17.4220000  11.5700000  11.7930000
  15.2860000  15.1970000  12.3790000  14.3290000  15.5850000   8.4180000
  14.2810000  16.2920000  10.4020000  14.3140000  14.5550000   6.1300000
  15.4680000  12.4000000   5.7860000  16.4360000  11.6230000   7.5380000
  16.5660000  13.3060000  13.2210000  13.8190000  16.4710000   8.0520000
  14.7130000  13.5110000   5.3070000  13.5720000  15.6180000   5.5900000
  15.7580000  11.5810000   5.1310000  14.3080000  13.5370000   3.8850000
  13.2110000  15.6580000   4.2730000  13.2710000  16.4210000   6.2380000
  13.5520000  14.6020000   3.3790000  14.6580000  12.5340000   2.9990000
  12.6410000  16.5030000   3.9100000  13.1350000  14.6820000   2.0380000
  14.2420000  12.5960000   1.6540000  15.2730000  11.7100000   3.3310000
  13.4960000  13.6590000   1.2080000  12.5540000  15.5190000   1.6770000
  14.5010000  11.7950000   0.9810000  13.1970000  13.6910000   0.1760000
  15.6670000  13.4120000  22.9370000  16.4030000  12.3620000  23.5060000
  15.2680000  14.4540000  23.8260000  15.2890000  13.4740000  21.5300000
  16.7050000  12.3680000  24.8820000  16.7330000  11.5480000  22.8860000
  15.5290000  14.4290000  25.2240000  14.5300000  15.4960000  23.2630000
  14.5580000  14.5420000  21.0300000  15.7180000  12.4180000  20.6600000
  16.2470000  13.3600000  25.6870000  17.3130000  11.5700000  25.3070000
  15.1770000  15.1970000  25.8940000  14.2200000  15.5850000  21.9330000
  14.1720000  16.2920000  23.9170000  14.2060000  14.5550000  19.6450000
  15.3590000  12.4000000  19.3000000  16.3270000  11.6230000  21.0530000
  16.4570000  13.3060000  26.7360000  13.7100000  16.4710000  21.5670000
  14.6050000  13.5110000  18.8220000  13.4640000  15.6180000  19.1040000
  15.6490000  11.5810000  18.6460000  14.2000000  13.5370000  17.4000000
  13.1030000  15.6580000  17.7880000  13.1630000  16.4210000  19.7530000
  13.4430000  14.6020000  16.8930000  14.5500000  12.5340000  16.5130000
  12.5330000  16.5030000  17.4240000  13.0270000  14.6820000  15.5530000
  14.1330000  12.5960000  15.1690000  15.1640000  11.7100000  16.8460000
  13.3870000  13.6590000  14.7230000  12.4450000  15.5190000  15.1920000
  14.3920000  11.7950000  14.4960000  13.0880000  13.6910000  13.6900000
  15.4500000  13.4120000  49.9660000  16.1860000  12.3620000  50.5350000
  15.0510000  14.4540000  50.8550000  15.0720000  13.4740000  48.5590000
  16.4880000  12.3680000  51.9110000  16.5160000  11.5480000  49.9150000
  15.3120000  14.4290000  52.2530000  14.3130000  15.4960000  50.2920000
  14.3410000  14.5420000  48.0590000  15.5010000  12.4180000  47.6890000
  16.0300000  13.3600000  52.7160000  17.0960000  11.5700000  52.3370000
  14.9600000  15.1970000  52.9230000  14.0030000  15.5850000  48.9620000
  13.9550000  16.2920000  50.9460000  13.9890000  14.5550000  46.6740000
  15.1420000  12.4000000  46.3290000  16.1100000  11.6230000  48.0820000
  16.2400000  13.3060000  53.7650000  13.4930000  16.4710000  48.5960000
  14.3880000  13.5110000  45.8510000  13.2470000  15.6180000  46.1330000
  15.4320000  11.5810000  45.6750000  13.9830000  13.5370000  44.4290000
  12.8860000  15.6580000  44.8170000  12.9460000  16.4210000  46.7820000
  13.2260000  14.6020000  43.9220000  14.3330000  12.5340000  43.5430000
  12.3160000  16.5030000  44.4530000  12.8100000  14.6820000  42.5820000
  13.9160000  12.5960000  42.1980000  14.9470000  11.7100000  43.8750000
  13.1700000  13.6590000  41.7520000  12.2280000  15.5190000  42.2210000
  14.1750000  11.7950000  41.5250000  12.8710000  13.6910000  40.7190000
  15.3410000  13.4120000  63.4810000  16.0780000  12.3620000  64.0500000
  14.9420000  14.4540000  64.3700000  14.9630000  13.4740000  62.0740000
  16.3800000  12.3680000  65.4250000  16.4070000  11.5480000  63.4290000
  15.2030000  14.4290000  65.7670000  14.2050000  15.4960000  63.8060000
  14.2330000  14.5420000  61.5740000  15.3930000  12.4180000  61.2030000
  15.9210000  13.3600000  66.2310000  16.9880000  11.5700000  65.8510000
  14.8520000  15.1970000  66.4380000  13.8950000  15.5850000  62.4760000
  13.8470000  16.2920000  64.4600000  13.8800000  14.5550000  60.1880000
  15.0340000  12.4000000  59.8440000  16.0020000  11.6230000  61.5970000
  16.1320000  13.3060000  67.2800000  13.3850000  16.4710000  62.1100000
  14.2790000  13.5110000  59.3650000  13.1380000  15.6180000  59.6480000
  15.3240000  11.5810000  59.1900000  13.8740000  13.5370000  57.9440000
  12.7770000  15.6580000  58.3320000  12.8370000  16.4210000  60.2970000
  13.1180000  14.6020000  57.4370000  14.2240000  12.5340000  57.0570000
  12.2070000  16.5030000  57.9680000  12.7010000  14.6820000  56.0960000
  13.8080000  12.5960000  55.7120000  14.8390000  11.7100000  57.3900000
  13.0620000  13.6590000  55.2660000  12.1200000  15.5190000  55.7350000
  14.0670000  11.7950000  55.0390000  12.7630000  13.6910000  54.2340000
  15.7750000  19.5660000   9.4220000  16.5120000  18.5160000   9.9910000
  15.3760000  20.6080000  10.3120000  15.3970000  19.6280000   8.0150000
  16.8140000  18.5220000  11.3670000  16.8420000  17.7020000   9.3710000
  15.6370000  20.5830000  11.7090000  14.6390000  21.6500000   9.7480000
  14.6670000  20.6960000   7.5150000  15.8270000  18.5720000   7.1450000
  16.3550000  19.5140000  12.1730000  17.4220000  17.7240000  11.7930000
  15.2860000  21.3510000  12.3790000  14.3290000  21.7390000   8.4180000
  14.2810000  22.4460000  10.4020000  14.3140000  20.7090000   6.1300000
  15.4680000  18.5540000   5.7860000  16.4360000  17.7770000   7.5380000
  16.5660000  19.4600000  13.2210000  13.8190000  22.6250000   8.0520000
  14.7130000  19.6650000   5.3070000  13.5720000  21.7720000   5.5900000
  15.7580000  17.7350000   5.1310000  14.3080000  19.6910000   3.8850000
  13.2110000  21.8120000   4.2730000  13.2710000  22.5750000   6.2380000
  13.5520000  20.7560000   3.3790000  14.6580000  18.6880000   2.9990000
  12.6410000  22.6570000   3.9100000  13.1350000  20.8360000   2.0380000
  14.2420000  18.7500000   1.6540000  15.2730000  17.8640000   3.3310000
  13.4960000  19.8130000   1.2080000  12.5540000  21.6730000   1.6770000
  14.5010000  17.9490000   0.9810000  13.1970000  19.8450000   0.1760000
  15.6670000  19.5660000  22.9370000  16.4030000  18.5160000  23.5060000
  15.2680000  20.6080000  23.8260000  15.2890000  19.6280000  21.5300000
  16.7050000  18.5220000  24.8820000  16.7330000  17.7020000  22.8860000
  15.5290000  20.5830000  25.2240000  14.5300000  21.6500000  23.2630000
  14.5580000  20.6960000  21.0300000  15.7180000  18.5720000  20.6600000
  16.2470000  19.5140000  25.6870000  17.3130000  17.7240000  25.3070000
  15.1770000  21.3510000  25.8940000  14.2200000  21.7390000  21.9330000
  14.1720000  22.4460000  23.9170000  14.2060000  20.7090000  19.6450000
  15.3590000  18.5540000  19.3000000  16.3270000  17.7770000  21.0530000
  16.4570000  19.4600000  26.7360000  13.7100000  22.6250000  21.5670000
  14.6050000  19.6650000  18.8220000  13.4640000  21.7720000  19.1040000
  15.6490000  17.7350000  18.6460000  14.2000000  19.6910000  17.4000000
  13.1030000  21.8120000  17.7880000  13.1630000  22.5750000  19.7530000
  13.4430000  20.7560000  16.8930000  14.5500000  18.6880000  16.5130000
  12.5330000  22.6570000  17.4240000  13.0270000  20.8360000  15.5530000
  14.1330000  18.7500000  15.1690000  15.1640000  17.8640000  16.8460000
  13.3870000  19.8130000  14.7230000  12.4450000  21.6730000  15.1920000
  14.3920000  17.9490000  14.4960000  13.0880000  19.8450000  13.6900000
  15.4500000  19.5660000  49.9660000  16.1860000  18.5160000  50.5350000
  15.0510000  20.6080000  50.8550000  15.0720000  19.6280000  48.5590000
  16.4880000  18.5220000  51.9110000  16.5160000  17.7020000  49.9150000
  15.3120000  20.5830000  52.2530000  14.3130000  21.6500000  50.2920000
  14.3410000  20.6960000  48.0590000  15.5010000  18.5720000  47.6890000
  16.0300000  19.5140000  52.7160000  17.0960000  17.7240000  52.3370000
  14.9600000  21.3510000  52.9230000  14.0030000  21.7390000  48.9620000
  13.9550000  22.4460000  50.9460000  13.9890000  20.7090000  46.6740000
  15.1420000  18.5540000  46.3290000  16.1100000  17.7770000  48.0820000
  16.2400000  19.4600000  53.7650000  13.4930000  22.6250000  48.5960000
  14.3880000  19.6650000  45.8510000  13.2470000  21.7720000  46.1330000
  15.4320000  17.7350000  45.6750000  13.9830000  19.6910000  44.4290000
  12.8860000  21.8120000  44.8170000  12.9460000  22.5750000  46.7820000
  13.2260000  20.7560000  43.9220000  14.3330000  18.6880000  43.5430000
  12.3160000  22.6570000  44.4530000  12.8100000  20.8360000  42.5820000
  13.9160000  18.7500000  42.1980000  14.9470000  17.8640000  43.8750000
  13.1700000  19.8130000  41.7520000  12.2280000  21.6730000  42.2210000
  14.1750000  17.9490000  41.5250000  12.8710000  19.8450000  40.7190000
  15.3410000  19.5660000  63.4810000  16.0780000  18.5160000  64.0500000
  14.9420000  20.6080000  64.3700000  14.9630000  19.6280000  62.0740000
  16.3800000  18.5220000  65.4250000  16.4070000  17.7020000  63.4290000
  15.2030000  20.5830000  65.7670000  14.2050000  21.6500000  63.8060000
  14.2330000  20.6960000  61.5740000  15.3930000  18.5720000  61.2030000
  15.9210000  19.5140000  66.2310000  16.9880000  17.7240000  65.8510000
  14.8520000  21.3510000  66.4380000  13.8950000  21.7390000  62.4760000
  13.8470000  22.4460000  64.4600000  13.8800000  20.7090000  60.1880000
  15.0340000  18.5540000  59.8440000  16.0020000  17.7770000  61.5970000
  16.1320000  19.4600000  67.2800000  13.3850000  22.6250000  62.1100000
  14.2790000  19.6650000  59.3650000  13.1380000  21.7720000  59.6480000
  15.3240000  17.7350000  59.1900000  13.8740000  19.6910000  57.9440000
  12.7770000  21.8120000  58.3320000  12.8370000  22.5750000  60.2970000
  13.1180000  20.7560000  57.4370000  14.2240000  18.6880000  57.0570000
  12.2070000  22.6570000  57.9680000  12.7010000  20.8360000  56.0960000
  13.8080000  18.7500000  55.7120000  14.8390000  17.8640000  57.3900000
  13.0620000  19.8130000  55.2660000  12.1200000  21.6730000  55.7350000
  14.0670000  17.9490000  55.0390000  12.7630000  19.8450000  54.2340000
  15.7750000  25.7200000   9.4220000  16.5120000  24.6700000   9.9910000
  15.3760000  26.7620000  10.3120000  15.3970000  25.7820000   8.0150000
  16.8140000  24.6760000  11.3670000  16.8420000  23.8560000   9.3710000
  15.6370000  26.7370000  11.7090000  14.6390000  27.8040000   9.7480000
  14.6670000  26.8500000   7.5150000  15.8270000  24.7260000   7.1450000
  16.3550000  25.6680000  12.1730000  17.4220000  23.8780000  11.7930000
  15.2860000  27.5050000  12.3790000  14.3290000  27.8930000   8.4180000
  14.2810000  28.6000000  10.4020000  14.3140000  26.8630000   6.1300000
  15.4680000  24.7080000   5.7860000  16.4360000  23.9310000   7.5380000
  16.5660000  25.6140000  13.2210000  13.8190000  28.7790000   8.0520000
  14.7130000  25.8190000   5.3070000  13.5720000  27.9260000   5.5900000
  15.7580000  23.8890000   5.1310000  14.3080000  25.8450000   3.8850000
  13.2110000  27.9660000   4.2730000  13.2710000  28.7290000   6.2380000
  13.5520000  26.9100000   3.3790000  14.6580000  24.8420000   2.9990000
  12.6410000  28.8110000   3.9100000  13.1350000  26.9900000   2.0380000
  14.2420000  24.9040000   1.6540000  15.2730000  24.0180000   3.3310000
  13.4960000  25.9670000   1.2080000  12.5540000  27.8270000   1.6770000
  14.5010000  24.1030000   0.9810000  13.1970000  25.9990000   0.1760000
  15.6670000  25.7200000  22.9370000  16.4030000  24.6700000  23.5060000
  15.2680000  26.7620000  23.8260000  15.2890000  25.7820000  21.5300000
  16.7050000  24.6760000  24.8820000  16.7330000  23.8560000  22.8860000
  15.5290000  26.7370000  25.2240000  14.5300000  27.8040000  23.2630000
  14.5580000  26.8500000  21.0300000  15.7180000  24.7260000  20.6600000
  16.2470000  25.6680000  25.6870000  17.3130000  23.8780000  25.3070000
  15.1770000  27.5050000  25.8940000  14.2200000  27.8930000  21.9330000
  14.1720000  28.6000000  23.9170000  14.2060000  26.8630000  19.6450000
  15.3590000  24.7080000  19.3000000  16.3270000  23.9310000  21.0530000
  16.4570000  25.6140000  26.7360000  13.7100000  28.7790000  21.5670000
  14.6050000  25.8190000  18.8220000  13.4640000  27.9260000  19.1040000
  15.6490000  23.8890000  18.6460000  14.2000000  25.8450000  17.4000000
  13.1030000  27.9660000  17.7880000  13.1630000  28.7290000  19.7530000
  13.4430000  26.9100000  16.8930000  14.5500000  24.8420000  16.5130000
  12.5330000  28.8110000  17.4240000  13.0270000  26.9900000  15.5530000
  14.1330000  24.9040000  15.1690000  15.1640000  24.0180000  16.8460000
  13.3870000  25.9670000  14.7230000  12.4450000  27.8270000  15.1920000
  14.3920000  24.1030000  14.4960000  13.0880000  25.9990000  13.6900000
  15.4500000  25.7200000  49.9660000  16.1860000  24.6700000  50.5350000
  15.0510000  26.7620000  50.8550000  15.0720000  25.7820000  48.5590000
  16.4880000  24.6760000  51.9110000  16.5160000  23.8560000  49.9150000
  15.3120000  26.7370000  52.2530000  14.3130000  27.8040000  50.2920000
  14.3410000  26.8500000  48.0590000  15.5010000  24.7260000  47.6890000
  16.0300000  25.6680000  52.7160000  17.0960000  23.8780000  52.3370000
  14.9600000  27.5050000  52.9230000  14.0030000  27.8930000  48.9620000
  13.9550000  28.6000000  50.9460000  13.9890000  26.8630000  46.6740000
  15.1420000  24.7080000  46.3290000  16.1100000  23.9310000  48.0820000
  16.2400000  25.6140000  53.7650000  13.4930000  28.7790000  48.5960000
  14.3880000  25.8190000  45.8510000  13.2470000  27.9260000  46.1330000
  15.4320000  23.8890000  45.6750000  13.9830000  25.8450000  44.4290000
  12.8860000  27.9660000  44.8170000  12.9460000  28.7290000  46.7820000
  13.2260000  26.9100000  43.9220000  14.3330000  24.8420000  43.5430000
  12.3160000  28.8110000  44.4530000  12.8100000  26.9900000  42.5820000
  13.9160000  24.9040000  42.1980000  14.9470000  24.0180000  43.8750000
  13.1700000  25.9670000  41.7520000  12.2280000  27.8270000  42.2210000
  14.1750000  24.1030000  41.5250000  12.8710000  25.9990000  40.7190000
  15.3410000  25.7200000  63.4810000  16.0780000  24.6700000  64.0500000
  14.9420000  26.7620000  64.3700000  14.9630000  25.7820000  62.0740000
  16.3800000  24.6760000  65.4250000  16.4070000  23.8560000  63.4290000
  15.2030000  26.7370000  65.7670000  14.2050000  27.8040000  63.8060000
  14.2330000  26.8500000  61.5740000  15.3930000  24.7260000  61.2030000
  15.9210000  25.6680000  66.2310000  16.9880000  23.8780000  65.8510000
  14.8520000  27.5050000  66.4380000  13.8950000  27.8930000  62.4760000
  13.8470000  28.6000000  64.4600000  13.8800000  26.8630000  60.1880000
  15.0340000  24.7080000  59.8440000  16.0020000  23.9310000  61.5970000
  16.1320000  25.6140000  67.2800000  13.3850000  28.7790000  62.1100000
  14.2790000  25.8190000  59.3650000  13.1380000  27.9260000  59.6480000
  15.3240000  23.8890000  59.1900000  13.8740000  25.8450000  57.9440000
  12.7770000  27.9660000  58.3320000  12.8370000  28.7290000  60.2970000
  13.1180000  26.9100000  57.4370000  14.2240000  24.8420000  57.0570000
  12.2070000  28.8110000  57.9680000  12.7010000  26.9900000  56.0960000
  13.8080000  24.9040000  55.7120000  14.8390000  24.0180000  57.3900000
  13.0620000  25.9670000  55.2660000  12.1200000  27.8270000  55.7350000
  14.0670000  24.1030000  55.0390000  12.7630000  25.9990000  54.2340000
  15.7750000  31.8740000   9.4220000  16.5120000  30.8240000   9.9910000
  15.3760000  32.9160000  10.3120000  15.3970000  31.9360000   8.0150000
  16.8140000  30.8300000  11.3670000  16.8420000  30.0100000   9.3710000
  15.6370000  32.8910000  11.7090000  14.6390000  33.9580000   9.7480000
  14.6670000  33.0040000   7.5150000  15.8270000  30.8800000   7.1450000
  16.3550000  31.8220000  12.1730000  17.4220000  30.0320000  11.7930000
  15.2860000  33.6590000  12.3790000  14.3290000  34.0470000   8.4180000
  14.2810000  34.7540000  10.4020000  14.3140000  33.0170000   6.1300000
  15.4680000  30.8620000   5.7860000  16.4360000  30.0850000   7.5380000
  16.5660000  31.7680000  13.2210000  13.8190000  34.9330000   8.0520000
  14.7130000  31.9730000   5.3070000  13.5720000  34.0800000   5.5900000
  15.7580000  30.0430000   5.1310000  14.3080000  31.9990000   3.8850000
  13.2110000  34.1200000   4.2730000  13.2710000  34.8830000   6.2380000
  13.5520000  33.0640000   3.3790000  14.6580000  30.9960000   2.9990000
  12.6410000  34.9650000   3.9100000  13.1350000  33.1440000   2.0380000
  14.2420000  31.0580000   1.6540000  15.2730000  30.1720000   3.3310000
  13.4960000  32.1210000   1.2080000  12.5540000  33.9810000   1.6770000
  14.5010000  30.2570000   0.9810000  13.1970000  32.1530000   0.1760000
  15.6670000  31.8740000  22.9370000  16.4030000  30.8240000  23.5060000
  15.2680000  32.9160000  23.8260000  15.2890000  31.9360000  21.5300000
  16.7050000  30.8300000  24.8820000  16.7330000  30.0100000  22.8860000
  15.5290000  32.8910000  25.2240000  14.5300000  33.9580000  23.2630000
  14.5580000  33.0040000  21.0300000  15.7180000  30.8800000  20.6600000
  16.2470000  31.8220000  25.6870000  17.3130000  30.0320000  25.3070000
  15.1770000  33.6590000  25.8940000  14.2200000  34.0470000  21.9330000
  14.1720000  34.7540000  23.9170000  14.2060000  33.0170000  19.6450000
  15.3590000  30.8620000  19.3000000  16.3270000  30.0850000  21.0530000
  16.4570000  31.7680000  26.7360000  13.7100000  34.9330000  21.5670000
  14.6050000  31.9730000  18.8220000  13.4640000  34.0800000  19.1040000
  15.6490000  30.0430000  18.6460000  14.2000000  31.9990000  17.4000000
  13.1030000  34.1200000  17.7880000  13.1630000  34.8830000  19.7530000
  13.4430000  33.0640000  16.8930000  14.5500000  30.9960000  16.5130000
  12.5330000  34.9650000  17.4240000  13.0270000  33.1440000  15.5530000
  14.1330000  31.0580000  15.1690000  15.1640000  30.1720000  16.8460000
  13.3870000  32.1210000  14.7230000  12.4450000  33.9810000  15.1920000
  14.3920000  30.2570000  14.4960000  13.0880000  32.1530000  13.6900000
  15.4500000  31.8740000  49.9660000  16.1860000  30.8240000  50.5350000
  15.0510000  32.9160000  50.8550000  15.0720000  31.9360000  48.5590000
  16.4880000  30.8300000  51.9110000  16.5160000  30.0100000  49.9150000
  15.3120000  32.8910000  52.2530000  14.3130000  33.9580000  50.2920000
  14.3410000  33.0040000  48.0590000  15.5010000  30.8800000  47.6890000
  16.0300000  31.8220000  52.7160000  17.0960000  30.0320000  52.3370000
  14.9600000  33.6590000  52.9230000  14.0030000  34.0470000  48.9620000
  13.9550000  34.7540000  50.9460000  13.9890000  33.0170000  46.6740000
  15.1420000  30.8620000  46.3290000  16.1100000  30.0850000  48.0820000
  16.2400000  31.7680000  53.7650000  13.4930000  34.9330000  48.5960000
  14.3880000  31.9730000  45.8510000  13.2470000  34.0800000  46.1330000
  15.4320000  30.0430000  45.6750000  13.9830000  31.9990000  44.4290000
  12.8860000  34.1200000  44.8170000  12.9460000  34.8830000  46.7820000
  13.2260000  33.0640000  43.9220000  14.3330000  30.9960000  43.5430000
  12.3160000  34.9650000  44.4530000  12.8100000  33.1440000  42.5820000
  13.9160000  31.0580000  42.1980000  14.9470000  30.1720000  43.8750000
  13.1700000  32.1210000  41.7520000  12.2280000  33.9810000  42.2210000
  14.1750000  30.2570000  41.5250000  12.8710000  32.1530000  40.7190000
  15.3410000  31.8740000  63.4810000  16.0780000  30.8240000  64.0500000
  14.9420000  32.9160000  64.3700000  14.9630000  31.9360000  62.0740000
  16.3800000  30.8300000  65.4250000  16.4070000  30.0100000  63.4290000
  15.2030000  32.8910000  65.7670000  14.2050000  33.9580000  63.8060000
  14.2330000  33.0040000  61.5740000  15.3930000  30.8800000  61.2030000
  15.9210000  31.8220000  66.2310000  16.9880000  30.0320000  65.8510000
  14.8520000  33.6590000  66.4380000  13.8950000  34.0470000  62.4760000
  13.8470000  34.7540000  64.4600000  13.8800000  33.0170000  60.1880000
  15.0340000  30.8620000  59.8440000  16.0020000  30.0850000  61.5970000
  16.1320000  31.7680000  67.2800000  13.3850000  34.9330000  62.1100000
  14.2790000  31.9730000  59.3650000  13.1380000  34.0800000  59.6480000
  15.3240000  30.0430000  59.1900000  13.8740000  31.9990000  57.9440000
  12.7770000  34.1200000  58.3320000  12.8370000  34.8830000  60.2970000
  13.1180000  33.0640000  57.4370000  14.2240000  30.9960000  57.0570000
  12.2070000  34.9650000  57.9680000  12.7010000  33.1440000  56.0960000
  13.8080000  31.0580000  55.7120000  14.8390000  30.1720000  57.3900000
  13.0620000  32.1210000  55.2660000  12.1200000  33.9810000  55.7350000
  14.0670000  30.2570000  55.0390000  12.7630000  32.1530000  54.2340000
  15.7750000  38.0280000   9.4220000  16.5120000  36.9780000   9.9910000
  15.3760000  39.0700000  10.3120000  15.3970000  38.0900000   8.0150000
  16.8140000  36.9840000  11.3670000  16.8420000  36.1640000   9.3710000
  15.6370000  39.0450000  11.7090000  14.6390000  40.1120000   9.7480000
  14.6670000  39.1580000   7.5150000  15.8270000  37.0340000   7.1450000
  16.3550000  37.9760000  12.1730000  17.4220000  36.1860000  11.7930000
  15.2860000  39.8130000  12.3790000  14.3290000  40.2010000   8.4180000
  14.2810000  40.9080000  10.4020000  14.3140000  39.1710000   6.1300000
  15.4680000  37.0160000   5.7860000  16.4360000  36.2390000   7.5380000
  16.5660000  37.9220000  13.2210000  13.8190000  41.0870000   8.0520000
  14.7130000  38.1270000   5.3070000  13.5720000  40.2340000   5.5900000
  15.7580000  36.1970000   5.1310000  14.3080000  38.1530000   3.8850000
  13.2110000  40.2740000   4.2730000  13.2710000  41.0370000   6.2380000
  13.5520000  39.2180000   3.3790000  14.6580000  37.1500000   2.9990000
  12.6410000  41.1190000   3.9100000  13.1350000  39.2980000   2.0380000
  14.2420000  37.2120000   1.6540000  15.2730000  36.3260000   3.3310000
  13.4960000  38.2750000   1.2080000  12.5540000  40.1350000   1.6770000
  14.5010000  36.4110000   0.9810000  13.1970000  38.3070000   0.1760000
  15.6670000  38.0280000  22.9370000  16.4030000  36.9780000  23.5060000
  15.2680000  39.0700000  23.8260000  15.2890000  38.0900000  21.5300000
  16.7050000  36.9840000  24.8820000  16.7330000  36.1640000  22.8860000
  15.5290000  39.0450000  25.2240000  14.5300000  40.1120000  23.2630000
  14.5580000  39.1580000  21.0300000  15.7180000  37.0340000  20.6600000
  16.2470000  37.9760000  25.6870000  17.3130000  36.1860000  25.3070000
  15.1770000  39.8130000  25.8940000  14.2200000  40.2010000  21.9330000
  14.1720000  40.9080000  23.9170000  14.2060000  39.1710000  19.6450000
  15.3590000  37.0160000  19.3000000  16.3270000  36.2390000  21.0530000
  16.4570000  37.9220000  26.7360000  13.7100000  41.0870000  21.5670000
  14.6050000  38.1270000  18.8220000  13.4640000  40.2340000  19.1040000
  15.6490000  36.1970000  18.6460000  14.2000000  38.1530000  17.4000000
  13.1030000  40.2740000  17.7880000  13.1630000  41.0370000  19.7530000
  13.4430000  39.2180000  16.8930000  14.5500000  37.1500000  16.5130000
  12.5330000  41.1190000  17.4240000  13.0270000  39.2980000  15.5530000
  14.1330000  37.2120000  15.1690000  15.1640000  36.3260000  16.8460000
  13.3870000  38.2750000  14.7230000  12.4450000  40.1350000  15.1920000
  14.3920000  36.4110000  14.4960000  13.0880000  38.3070000  13.6900000
  15.4500000  38.0280000  49.9660000  16.1860000  36.9780000  50.5350000
  15.0510000  39.0700000  50.8550000  15.0720000  38.0900000  48.5590000
  16.4880000  36.9840000  51.9110000  16.5160000  36.1640000  49.9150000
  15.3120000  39.0450000  52.2530000  14.3130000  40.1120000  50.2920000
  14.3410000  39.1580000  48.0590000  15.5010000  37.0340000  47.6890000
  16.0300000  37.9760000  52.7160000  17.0960000  36.1860000  52.3370000
  14.9600000  39.8130000  52.9230000  14.0030000  40.2010000  48.9620000
  13.9550000  40.9080000  50.9460000  13.9890000  39.1710000  46.6740000
  15.1420000  37.0160000  46.3290000  16.1100000  36.2390000  48.0820000
  16.2400000  37.9220000  53.7650000  13.4930000  41.0870000  48.5960000
  14.3880000  38.1270000  45.8510000  13.2470000  40.2340000  46.1330000
  15.4320000  36.1970000  45.6750000  13.9830000  38.1530000  44.4290000
  12.8860000  40.2740000  44.8170000  12.9460000  41.0370000  46.7820000
  13.2260000  39.2180000  43.9220000  14.3330000  37.1500000  43.5430000
  12.3160000  41.1190000  44.4530000  12.8100000  39.2980000  42.5820000
  13.9160000  37.2120000  42.1980000  14.9470000  36.3260000  43.8750000
  13.1700000  38.2750000  41.7520000  12.2280000  40.1350000  42.2210000
  14.1750000  36.4110000  41.5250000  12.8710000  38.3070000  40.7190000
  15.3410000  38.0280000  63.4810000  16.0780000  36.9780000  64.0500000
  14.9420000  39.0700000  64.3700000  14.9630000  38.0900000  62.0740000
  16.3800000  36.9840000  65.4250000  16.4070000  36.1640000  63.4290000
  15.2030000  39.0450000  65.7670000  14.2050000  40.1120000  63.8060000
  14.2330000  39.1580000  61.5740000  15.3930000  37.0340000  61.2030000
  15.9210000  37.9760000  66.2310000  16.9880000  36.1860000  65.8510000
  14.8520000  39.8130000  66.4380000  13.8950000  40.2010000  62.4760000
  13.8470000  40.9080000  64.4600000  13.8800000  39.1710000  60.1880000
  15.0340000  37.0160000  59.8440000  16.0020000  36.2390000  61.5970000
  16.1320000  37.9220000  67.2800000  13.3850000  41.0870000  62.1100000
  14.2790000  38.1270000  59.3650000  13.1380000  40.2340000  59.6480000
  15.3240000  36.1970000  59.1900000  13.8740000  38.1530000  57.9440000
  12.7770000  40.2740000  58.3320000  12.8370000  41.0370000  60.2970000
  13.1180000  39.2180000  57.4370000  14.2240000  37.1500000  57.0570000
  12.2070000  41.1190000  57.9680000  12.7010000  39.2980000  56.0960000
  13.8080000  37.2120000  55.7120000  14.8390000  36.3260000  57.3900000
  13.0620000  38.2750000  55.2660000  12.1200000  40.1350000  55.7350000
  14.0670000  36.4110000  55.0390000  12.7630000  38.3070000  54.2340000
  15.7750000   1.1040000   9.4220000  16.5120000   0.0540000   9.9910000
  15.3760000   2.1460000  10.3120000  15.3970000   1.1660000   8.0150000
  16.8140000   0.0600000  11.3670000  16.8420000  -0.7600000   9.3710000
  15.6370000   2.1210000  11.7090000  14.6390000   3.1880000   9.7480000
  14.6670000   2.2340000   7.5150000  15.8270000   0.1100000   7.1450000
  16.3550000   1.0520000  12.1730000  17.4220000  -0.7380000  11.7930000
  15.2860000   2.8890000  12.3790000  14.3290000   3.2770000   8.4180000
  14.2810000   3.9840000  10.4020000  14.3140000   2.2470000   6.1300000
  15.4680000   0.0920000   5.7860000  16.4360000  -0.6850000   7.5380000
  16.5660000   0.9980000  13.2210000  13.8190000   4.1630000   8.0520000
  14.7130000   1.2030000   5.3070000  13.5720000   3.3100000   5.5900000
  15.7580000  -0.7270000   5.1310000  14.3080000   1.2290000   3.8850000
  13.2110000   3.3500000   4.2730000  13.2710000   4.1130000   6.2380000
  13.5520000   2.2940000   3.3790000  14.6580000   0.2260000   2.9990000
  12.6410000   4.1950000   3.9100000  13.1350000   2.3740000   2.0380000
  14.2420000   0.2880000   1.6540000  15.2730000  -0.5980000   3.3310000
  13.4960000   1.3510000   1.2080000  12.5540000   3.2110000   1.6770000
  14.5010000  -0.5130000   0.9810000  13.1970000   1.3830000   0.1760000
  15.6670000   1.1040000  22.9370000  16.4030000   0.0540000  23.5060000
  15.2680000   2.1460000  23.8260000  15.2890000   1.1660000  21.5300000
  16.7050000   0.0600000  24.8820000  16.7330000  -0.7600000  22.8860000
  15.5290000   2.1210000  25.2240000  14.5300000   3.1880000  23.2630000
  14.5580000   2.2340000  21.0300000  15.7180000   0.1100000  20.6600000
  16.2470000   1.0520000  25.6870000  17.3130000  -0.7380000  25.3070000
  15.1770000   2.8890000  25.8940000  14.2200000   3.2770000  21.9330000
  14.1720000   3.9840000  23.9170000  14.2060000   2.2470000  19.6450000
  15.3590000   0.0920000  19.3000000  16.3270000  -0.6850000  21.0530000
  16.4570000   0.9980000  26.7360000  13.7100000   4.1630000  21.5670000
  14.6050000   1.2030000  18.8220000  13.4640000   3.3100000  19.1040000
  15.6490000  -0.7270000  18.6460000  14.2000000   1.2290000  17.4000000
  13.1030000   3.3500000  17.7880000  13.1630000   4.1130000  19.7530000
  13.4430000   2.2940000  16.8930000  14.5500000   0.2260000  16.5130000
  12.5330000   4.1950000  17.4240000  13.0270000   2.3740000  15.5530000
  14.1330000   0.2880000  15.1690000  15.1640000  -0.5980000  16.8460000
  13.3870000   1.3510000  14.7230000  12.4450000   3.2110000  15.1920000
  14.3920000  -0.5130000  14.4960000  13.0880000   1.3830000  13.6900000
  15.5580000   1.1040000  36.4510000  16.2950000   0.0540000  37.0200000
  15.1590000   2.1460000  37.3410000  15.1800000   1.1660000  35.0450000
  16.5970000   0.0600000  38.3960000  16.6250000  -0.7600000  36.4000000
  15.4200000   2.1210000  38.7380000  14.4220000   3.1880000  36.7770000
  14.4500000   2.2340000  34.5450000  15.6100000   0.1100000  34.1740000
  16.1380000   1.0520000  39.2020000  17.2050000  -0.7380000  38.8220000
  15.0690000   2.8890000  39.4080000  14.1120000   3.2770000  35.4470000
  14.0640000   3.9840000  37.4310000  14.0970000   2.2470000  33.1590000
  15.2510000   0.0920000  32.8150000  16.2190000  -0.6850000  34.5680000
  16.3490000   0.9980000  40.2500000  13.6020000   4.1630000  35.0810000
  14.4960000   1.2030000  32.3360000  13.3550000   3.3100000  32.6190000
  15.5410000  -0.7270000  32.1610000  14.0910000   1.2290000  30.9150000
  12.9940000   3.3500000  31.3020000  13.0540000   4.1130000  33.2670000
  13.3350000   2.2940000  30.4080000  14.4410000   0.2260000  30.0280000
  12.4240000   4.1950000  30.9390000  12.9180000   2.3740000  29.0670000
  14.0250000   0.2880000  28.6830000  15.0560000  -0.5980000  30.3600000
  13.2790000   1.3510000  28.2370000  12.3370000   3.2110000  28.7060000
  14.2840000  -0.5130000  28.0100000  12.9800000   1.3830000  27.2050000
  15.4500000   1.1040000  49.9660000  16.1860000   0.0540000  50.5350000
  15.0510000   2.1460000  50.8550000  15.0720000   1.1660000  48.5590000
  16.4880000   0.0600000  51.9110000  16.5160000  -0.7600000  49.9150000
  15.3120000   2.1210000  52.2530000  14.3130000   3.1880000  50.2920000
  14.3410000   2.2340000  48.0590000  15.5010000   0.1100000  47.6890000
  16.0300000   1.0520000  52.7160000  17.0960000  -0.7380000  52.3370000
  14.9600000   2.8890000  52.9230000  14.0030000   3.2770000  48.9620000
  13.9550000   3.9840000  50.9460000  13.9890000   2.2470000  46.6740000
  15.1420000   0.0920000  46.3290000  16.1100000  -0.6850000  48.0820000
  16.2400000   0.9980000  53.7650000  13.4930000   4.1630000  48.5960000
  14.3880000   1.2030000  45.8510000  13.2470000   3.3100000  46.1330000
  15.4320000  -0.7270000  45.6750000  13.9830000   1.2290000  44.4290000
  12.8860000   3.3500000  44.8170000  12.9460000   4.1130000  46.7820000
  13.2260000   2.2940000  43.9220000  14.3330000   0.2260000  43.5430000
  12.3160000   4.1950000  44.4530000  12.8100000   2.3740000  42.5820000
  13.9160000   0.2880000  42.1980000  14.9470000  -0.5980000  43.8750000
  13.1700000   1.3510000  41.7520000  12.2280000   3.2110000  42.2210000
  14.1750000  -0.5130000  41.5250000  12.8710000   1.3830000  40.7190000
  15.3410000   1.1040000  63.4810000  16.0780000   0.0540000  64.0500000
  14.9420000   2.1460000  64.3700000  14.9630000   1.1660000  62.0740000
  16.3800000   0.0600000  65.4250000  16.4070000  -0.7600000  63.4290000
  15.2030000   2.1210000  65.7670000  14.2050000   3.1880000  63.8060000
  14.2330000   2.2340000  61.5740000  15.3930000   0.1100000  61.2030000
  15.9210000   1.0520000  66.2310000  16.9880000  -0.7380000  65.8510000
  14.8520000   2.8890000  66.4380000  13.8950000   3.2770000  62.4760000
  13.8470000   3.9840000  64.4600000  13.8800000   2.2470000  60.1880000
  15.0340000   0.0920000  59.8440000  16.0020000  -0.6850000  61.5970000
  16.1320000   0.9980000  67.2800000  13.3850000   4.1630000  62.1100000
  14.2790000   1.2030000  59.3650000  13.1380000   3.3100000  59.6480000
  15.3240000  -0.7270000  59.1900000  13.8740000   1.2290000  57.9440000
  12.7770000   3.3500000  58.3320000  12.8370000   4.1130000  60.2970000
  13.1180000   2.2940000  57.4370000  14.2240000   0.2260000  57.0570000
  12.2070000   4.1950000  57.9680000  12.7010000   2.3740000  56.0960000
  13.8080000   0.2880000  55.7120000  14.8390000  -0.5980000  57.3900000
  13.0620000   1.3510000  55.2660000  12.1200000   3.2110000  55.7350000
  14.0670000  -0.5130000  55.0390000  12.7630000   1.3830000  54.2340000
  18.0360000  10.3350000   4.0920000  17.3000000   9.2850000   3.5230000
  18.4350000  11.3770000   3.2030000  18.4140000  10.3970000   5.4990000
  16.9980000   9.2910000   2.1470000  16.9700000   8.4710000   4.1440000
  18.1740000  11.3520000   1.8060000  19.1730000  12.4190000   3.7670000
  19.1450000  11.4650000   5.9990000  17.9850000   9.3410000   6.3690000
  17.4560000  10.2830000   1.3420000  16.3900000   8.4930000   1.7220000
  18.5260000  12.1200000   1.1350000  19.4830000  12.5080000   5.0960000
  19.5310000  13.2150000   3.1120000  19.4970000  11.4780000   7.3840000
  18.3440000   9.3230000   7.7290000  17.3760000   8.5460000   5.9760000
  17.2460000  10.2290000   0.2930000  19.9930000  13.3940000   5.4630000
  19.0980000  10.4340000   8.2070000  20.2390000  12.5410000   7.9250000
  18.0540000   8.5040000   8.3830000  19.5030000  10.4600000   9.6290000
  20.6000000  12.5810000   9.2410000  20.5400000  13.3440000   7.2760000
  20.2600000  11.5250000  10.1360000  19.1530000   9.4570000  10.5160000
  21.1700000  13.4260000   9.6050000  20.6760000  11.6050000  11.4770000
  19.5700000   9.5190000  11.8600000  18.5390000   8.6330000  10.1830000
  20.3160000  10.5820000  12.3060000  21.2580000  12.4420000  11.8370000
  19.3110000   8.7180000  12.5330000  20.6150000  10.6140000  13.3390000
  17.9280000  10.3350000  17.6070000  17.1910000   9.2850000  17.0380000
  18.3270000  11.3770000  16.7180000  18.3060000  10.3970000  19.0140000
  16.8890000   9.2910000  15.6620000  16.8610000   8.4710000  17.6580000
  18.0660000  11.3520000  15.3200000  19.0640000  12.4190000  17.2810000
  19.0360000  11.4650000  19.5140000  17.8760000   9.3410000  19.8840000
  17.3480000  10.2830000  14.8570000  16.2810000   8.4930000  15.2360000
  18.4170000  12.1200000  14.6500000  19.3740000  12.5080000  18.6110000
  19.4220000  13.2150000  16.6270000  19.3890000  11.4780000  20.8990000
  18.2350000   9.3230000  21.2440000  17.2670000   8.5460000  19.4910000
  17.1370000  10.2290000  13.8080000  19.8840000  13.3940000  18.9770000
  18.9900000  10.4340000  21.7220000  20.1310000  12.5410000  21.4400000
  17.9450000   8.5040000  21.8980000  19.3950000  10.4600000  23.1440000
  20.4920000  12.5810000  22.7560000  20.4320000  13.3440000  20.7910000
  20.1510000  11.5250000  23.6500000  19.0450000   9.4570000  24.0300000
  21.0620000  13.4260000  23.1190000  20.5680000  11.6050000  24.9910000
  19.4610000   9.5190000  25.3750000  18.4300000   8.6330000  23.6980000
  20.2070000  10.5820000  25.8210000  21.1490000  12.4420000  25.3520000
  19.2020000   8.7180000  26.0480000  20.5060000  10.6140000  26.8530000
  17.7110000  10.3350000  44.6360000  16.9740000   9.2850000  44.0670000
  18.1100000  11.3770000  43.7470000  18.0890000  10.3970000  46.0430000
  16.6720000   9.2910000  42.6910000  16.6440000   8.4710000  44.6870000
  17.8490000  11.3520000  42.3490000  18.8470000  12.4190000  44.3100000
  18.8190000  11.4650000  46.5430000  17.6590000   9.3410000  46.9130000
  17.1310000  10.2830000  41.8860000  16.0640000   8.4930000  42.2650000
  18.2000000  12.1200000  41.6790000  19.1570000  12.5080000  45.6400000
  19.2050000  13.2150000  43.6560000  19.1720000  11.4780000  47.9280000
  18.0180000   9.3230000  48.2730000  17.0500000   8.5460000  46.5200000
  16.9200000  10.2290000  40.8370000  19.6670000  13.3940000  46.0060000
  18.7730000  10.4340000  48.7510000  19.9140000  12.5410000  48.4690000
  17.7280000   8.5040000  48.9270000  19.1770000  10.4600000  50.1730000
  20.2750000  12.5810000  49.7850000  20.2150000  13.3440000  47.8200000
  19.9340000  11.5250000  50.6800000  18.8280000   9.4570000  51.0590000
  20.8450000  13.4260000  50.1480000  20.3510000  11.6050000  52.0200000
  19.2440000   9.5190000  52.4040000  18.2130000   8.6330000  50.7270000
  19.9900000  10.5820000  52.8500000  20.9320000  12.4420000  52.3810000
  18.9850000   8.7180000  53.0770000  20.2890000  10.6140000  53.8830000
  18.0360000  16.4890000   4.0920000  17.3000000  15.4390000   3.5230000
  18.4350000  17.5310000   3.2030000  18.4140000  16.5510000   5.4990000
  16.9980000  15.4450000   2.1470000  16.9700000  14.6250000   4.1440000
  18.1740000  17.5060000   1.8060000  19.1730000  18.5730000   3.7670000
  19.1450000  17.6190000   5.9990000  17.9850000  15.4950000   6.3690000
  17.4560000  16.4370000   1.3420000  16.3900000  14.6470000   1.7220000
  18.5260000  18.2740000   1.1350000  19.4830000  18.6620000   5.0960000
  19.5310000  19.3690000   3.1120000  19.4970000  17.6320000   7.3840000
  18.3440000  15.4770000   7.7290000  17.3760000  14.7000000   5.9760000
  17.2460000  16.3830000   0.2930000  19.9930000  19.5480000   5.4630000
  19.0980000  16.5880000   8.2070000  20.2390000  18.6950000   7.9250000
  18.0540000  14.6580000   8.3830000  19.5030000  16.6140000   9.6290000
  20.6000000  18.7350000   9.2410000  20.5400000  19.4980000   7.2760000
  20.2600000  17.6790000  10.1360000  19.1530000  15.6110000  10.5160000
  21.1700000  19.5800000   9.6050000  20.6760000  17.7590000  11.4770000
  19.5700000  15.6730000  11.8600000  18.5390000  14.7870000  10.1830000
  20.3160000  16.7360000  12.3060000  21.2580000  18.5960000  11.8370000
  19.3110000  14.8720000  12.5330000  20.6150000  16.7680000  13.3390000
  17.9280000  16.4890000  17.6070000  17.1910000  15.4390000  17.0380000
  18.3270000  17.5310000  16.7180000  18.3060000  16.5510000  19.0140000
  16.8890000  15.4450000  15.6620000  16.8610000  14.6250000  17.6580000
  18.0660000  17.5060000  15.3200000  19.0640000  18.5730000  17.2810000
  19.0360000  17.6190000  19.5140000  17.8760000  15.4950000  19.8840000
  17.3480000  16.4370000  14.8570000  16.2810000  14.6470000  15.2360000
  18.4170000  18.2740000  14.6500000  19.3740000  18.6620000  18.6110000
  19.4220000  19.3690000  16.6270000  19.3890000  17.6320000  20.8990000
  18.2350000  15.4770000  21.2440000  17.2670000  14.7000000  19.4910000
  17.1370000  16.3830000  13.8080000  19.8840000  19.5480000  18.9770000
  18.9900000  16.5880000  21.7220000  20.1310000  18.6950000  21.4400000
  17.9450000  14.6580000  21.8980000  19.3950000  16.6140000  23.1440000
  20.4920000  18.7350000  22.7560000  20.4320000  19.4980000  20.7910000
  20.1510000  17.6790000  23.6500000  19.0450000  15.6110000  24.0300000
  21.0620000  19.5800000  23.1190000  20.5680000  17.7590000  24.9910000
  19.4610000  15.6730000  25.3750000  18.4300000  14.7870000  23.6980000
  20.2070000  16.7360000  25.8210000  21.1490000  18.5960000  25.3520000
  19.2020000  14.8720000  26.0480000  20.5060000  16.7680000  26.8530000
  17.7110000  16.4890000  44.6360000  16.9740000  15.4390000  44.0670000
  18.1100000  17.5310000  43.7470000  18.0890000  16.5510000  46.0430000
  16.6720000  15.4450000  42.6910000  16.6440000  14.6250000  44.6870000
  17.8490000  17.5060000  42.3490000  18.8470000  18.5730000  44.3100000
  18.8190000  17.6190000  46.5430000  17.6590000  15.4950000  46.9130000
  17.1310000  16.4370000  41.8860000  16.0640000  14.6470000  42.2650000
  18.2000000  18.2740000  41.6790000  19.1570000  18.6620000  45.6400000
  19.2050000  19.3690000  43.6560000  19.1720000  17.6320000  47.9280000
  18.0180000  15.4770000  48.2730000  17.0500000  14.7000000  46.5200000
  16.9200000  16.3830000  40.8370000  19.6670000  19.5480000  46.0060000
  18.7730000  16.5880000  48.7510000  19.9140000  18.6950000  48.4690000
  17.7280000  14.6580000  48.9270000  19.1770000  16.6140000  50.1730000
  20.2750000  18.7350000  49.7850000  20.2150000  19.4980000  47.8200000
  19.9340000  17.6790000  50.6800000  18.8280000  15.6110000  51.0590000
  20.8450000  19.5800000  50.1480000  20.3510000  17.7590000  52.0200000
  19.2440000  15.6730000  52.4040000  18.2130000  14.7870000  50.7270000
  19.9900000  16.7360000  52.8500000  20.9320000  18.5960000  52.3810000
  18.9850000  14.8720000  53.0770000  20.2890000  16.7680000  53.8830000
  18.0360000  22.6430000   4.0920000  17.3000000  21.5930000   3.5230000
  18.4350000  23.6850000   3.2030000  18.4140000  22.7050000   5.4990000
  16.9980000  21.5990000   2.1470000  16.9700000  20.7790000   4.1440000
  18.1740000  23.6600000   1.8060000  19.1730000  24.7270000   3.7670000
  19.1450000  23.7730000   5.9990000  17.9850000  21.6490000   6.3690000
  17.4560000  22.5910000   1.3420000  16.3900000  20.8010000   1.7220000
  18.5260000  24.4280000   1.1350000  19.4830000  24.8160000   5.0960000
  19.5310000  25.5230000   3.1120000  19.4970000  23.7860000   7.3840000
  18.3440000  21.6310000   7.7290000  17.3760000  20.8540000   5.9760000
  17.2460000  22.5370000   0.2930000  19.9930000  25.7020000   5.4630000
  19.0980000  22.7420000   8.2070000  20.2390000  24.8490000   7.9250000
  18.0540000  20.8120000   8.3830000  19.5030000  22.7680000   9.6290000
  20.6000000  24.8890000   9.2410000  20.5400000  25.6520000   7.2760000
  20.2600000  23.8330000  10.1360000  19.1530000  21.7650000  10.5160000
  21.1700000  25.7340000   9.6050000  20.6760000  23.9130000  11.4770000
  19.5700000  21.8270000  11.8600000  18.5390000  20.9410000  10.1830000
  20.3160000  22.8900000  12.3060000  21.2580000  24.7500000  11.8370000
  19.3110000  21.0260000  12.5330000  20.6150000  22.9220000  13.3390000
  17.9280000  22.6430000  17.6070000  17.1910000  21.5930000  17.0380000
  18.3270000  23.6850000  16.7180000  18.3060000  22.7050000  19.0140000
  16.8890000  21.5990000  15.6620000  16.8610000  20.7790000  17.6580000
  18.0660000  23.6600000  15.3200000  19.0640000  24.7270000  17.2810000
  19.0360000  23.7730000  19.5140000  17.8760000  21.6490000  19.8840000
  17.3480000  22.5910000  14.8570000  16.2810000  20.8010000  15.2360000
  18.4170000  24.4280000  14.6500000  19.3740000  24.8160000  18.6110000
  19.4220000  25.5230000  16.6270000  19.3890000  23.7860000  20.8990000
  18.2350000  21.6310000  21.2440000  17.2670000  20.8540000  19.4910000
  17.1370000  22.5370000  13.8080000  19.8840000  25.7020000  18.9770000
  18.9900000  22.7420000  21.7220000  20.1310000  24.8490000  21.4400000
  17.9450000  20.8120000  21.8980000  19.3950000  22.7680000  23.1440000
  20.4920000  24.8890000  22.7560000  20.4320000  25.6520000  20.7910000
  20.1510000  23.8330000  23.6500000  19.0450000  21.7650000  24.0300000
  21.0620000  25.7340000  23.1190000  20.5680000  23.9130000  24.9910000
  19.4610000  21.8270000  25.3750000  18.4300000  20.9410000  23.6980000
  20.2070000  22.8900000  25.8210000  21.1490000  24.7500000  25.3520000
  19.2020000  21.0260000  26.0480000  20.5060000  22.9220000  26.8530000
  17.7110000  22.6430000  44.6360000  16.9740000  21.5930000  44.0670000
  18.1100000  23.6850000  43.7470000  18.0890000  22.7050000  46.0430000
  16.6720000  21.5990000  42.6910000  16.6440000  20.7790000  44.6870000
  17.8490000  23.6600000  42.3490000  18.8470000  24.7270000  44.3100000
  18.8190000  23.7730000  46.5430000  17.6590000  21.6490000  46.9130000
  17.1310000  22.5910000  41.8860000  16.0640000  20.8010000  42.2650000
  18.2000000  24.4280000  41.6790000  19.1570000  24.8160000  45.6400000
  19.2050000  25.5230000  43.6560000  19.1720000  23.7860000  47.9280000
  18.0180000  21.6310000  48.2730000  17.0500000  20.8540000  46.5200000
  16.9200000  22.5370000  40.8370000  19.6670000  25.7020000  46.0060000
  18.7730000  22.7420000  48.7510000  19.9140000  24.8490000  48.4690000
  17.7280000  20.8120000  48.9270000  19.1770000  22.7680000  50.1730000
  20.2750000  24.8890000  49.7850000  20.2150000  25.6520000  47.8200000
  19.9340000  23.8330000  50.6800000  18.8280000  21.7650000  51.0590000
  20.8450000  25.7340000  50.1480000  20.3510000  23.9130000  52.0200000
  19.2440000  21.8270000  52.4040000  18.2130000  20.9410000  50.7270000
  19.9900000  22.8900000  52.8500000  20.9320000  24.7500000  52.3810000
  18.9850000  21.0260000  53.0770000  20.2890000  22.9220000  53.8830000
  18.0360000  28.7970000   4.0920000  17.3000000  27.7470000   3.5230000
  18.4350000  29.8390000   3.2030000  18.4140000  28.8590000   5.4990000
  16.9980000  27.7530000   2.1470000  16.9700000  26.9330000   4.1440000
  18.1740000  29.8140000   1.8060000  19.1730000  30.8810000   3.7670000
  19.1450000  29.9270000   5.9990000  17.9850000  27.8030000   6.3690000
  17.4560000  28.7450000   1.3420000  16.3900000  26.9550000   1.7220000
  18.5260000  30.5820000   1.1350000  19.4830000  30.9700000   5.0960000
  19.5310000  31.6770000   3.1120000  19.4970000  29.9400000   7.3840000
  18.3440000  27.7850000   7.7290000  17.3760000  27.0080000   5.9760000
  17.2460000  28.6910000   0.2930000  19.9930000  31.8560000   5.4630000
  19.0980000  28.8960000   8.2070000  20.2390000  31.0030000   7.9250000
  18.0540000  26.9660000   8.3830000  19.5030000  28.9220000   9.6290000
  20.6000000  31.0430000   9.2410000  20.5400000  31.8060000   7.2760000
  20.2600000  29.9870000  10.1360000  19.1530000  27.9190000  10.5160000
  21.1700000  31.8880000   9.6050000  20.6760000  30.0670000  11.4770000
  19.5700000  27.9810000  11.8600000  18.5390000  27.0950000  10.1830000
  20.3160000  29.0440000  12.3060000  21.2580000  30.9040000  11.8370000
  19.3110000  27.1800000  12.5330000  20.6150000  29.0760000  13.3390000
  17.9280000  28.7970000  17.6070000  17.1910000  27.7470000  17.0380000
  18.3270000  29.8390000  16.7180000  18.3060000  28.8590000  19.0140000
  16.8890000  27.7530000  15.6620000  16.8610000  26.9330000  17.6580000
  18.0660000  29.8140000  15.3200000  19.0640000  30.8810000  17.2810000
  19.0360000  29.9270000  19.5140000  17.8760000  27.8030000  19.8840000
  17.3480000  28.7450000  14.8570000  16.2810000  26.9550000  15.2360000
  18.4170000  30.5820000  14.6500000  19.3740000  30.9700000  18.6110000
  19.4220000  31.6770000  16.6270000  19.3890000  29.9400000  20.8990000
  18.2350000  27.7850000  21.2440000  17.2670000  27.0080000  19.4910000
  17.1370000  28.6910000  13.8080000  19.8840000  31.8560000  18.9770000
  18.9900000  28.8960000  21.7220000  20.1310000  31.0030000  21.4400000
  17.9450000  26.9660000  21.8980000  19.3950000  28.9220000  23.1440000
  20.4920000  31.0430000  22.7560000  20.4320000  31.8060000  20.7910000
  20.1510000  29.9870000  23.6500000  19.0450000  27.9190000  24.0300000
  21.0620000  31.8880000  23.1190000  20.5680000  30.0670000  24.9910000
  19.4610000  27.9810000  25.3750000  18.4300000  27.0950000  23.6980000
  20.2070000  29.0440000  25.8210000  21.1490000  30.9040000  25.3520000
  19.2020000  27.1800000  26.0480000  20.5060000  29.0760000  26.8530000
  17.7110000  28.7970000  44.6360000  16.9740000  27.7470000  44.0670000
  18.1100000  29.8390000  43.7470000  18.0890000  28.8590000  46.0430000
  16.6720000  27.7530000  42.6910000  16.6440000  26.9330000  44.6870000
  17.8490000  29.8140000  42.3490000  18.8470000  30.8810000  44.3100000
  18.8190000  29.9270000  46.5430000  17.6590000  27.8030000  46.9130000
  17.1310000  28.7450000  41.8860000  16.0640000  26.9550000  42.2650000
  18.2000000  30.5820000  41.6790000  19.1570000  30.9700000  45.6400000
  19.2050000  31.6770000  43.6560000  19.1720000  29.9400000  47.9280000
  18.0180000  27.7850000  48.2730000  17.0500000  27.0080000  46.5200000
  16.9200000  28.6910000  40.8370000  19.6670000  31.8560000  46.0060000
  18.7730000  28.8960000  48.7510000  19.9140000  31.0030000  48.4690000
  17.7280000  26.9660000  48.9270000  19.1770000  28.9220000  50.1730000
  20.2750000  31.0430000  49.7850000  20.2150000  31.8060000  47.8200000
  19.9340000  29.9870000  50.6800000  18.8280000  27.9190000  51.0590000
  20.8450000  31.8880000  50.1480000  20.3510000  30.0670000  52.0200000
  19.2440000  27.9810000  52.4040000  18.2130000  27.0950000  50.7270000
  19.9900000  29.0440000  52.8500000  20.9320000  30.9040000  52.3810000
  18.9850000  27.1800000  53.0770000  20.2890000  29.0760000  53.8830000
  18.0360000  34.9510000   4.0920000  17.3000000  33.9010000   3.5230000
  18.4350000  35.9930000   3.2030000  18.4140000  35.0130000   5.4990000
  16.9980000  33.9070000   2.1470000  16.9700000  33.0870000   4.1440000
  18.1740000  35.9680000   1.8060000  19.1730000  37.0350000   3.7670000
  19.1450000  36.0810000   5.9990000  17.9850000  33.9570000   6.3690000
  17.4560000  34.8990000   1.3420000  16.3900000  33.1090000   1.7220000
  18.5260000  36.7360000   1.1350000  19.4830000  37.1240000   5.0960000
  19.5310000  37.8310000   3.1120000  19.4970000  36.0940000   7.3840000
  18.3440000  33.9390000   7.7290000  17.3760000  33.1620000   5.9760000
  17.2460000  34.8450000   0.2930000  19.9930000  38.0100000   5.4630000
  19.0980000  35.0500000   8.2070000  20.2390000  37.1570000   7.9250000
  18.0540000  33.1200000   8.3830000  19.5030000  35.0760000   9.6290000
  20.6000000  37.1970000   9.2410000  20.5400000  37.9600000   7.2760000
  20.2600000  36.1410000  10.1360000  19.1530000  34.0730000  10.5160000
  21.1700000  38.0420000   9.6050000  20.6760000  36.2210000  11.4770000
  19.5700000  34.1350000  11.8600000  18.5390000  33.2490000  10.1830000
  20.3160000  35.1980000  12.3060000  21.2580000  37.0580000  11.8370000
  19.3110000  33.3340000  12.5330000  20.6150000  35.2300000  13.3390000
  17.9280000  34.9510000  17.6070000  17.1910000  33.9010000  17.0380000
  18.3270000  35.9930000  16.7180000  18.3060000  35.0130000  19.0140000
  16.8890000  33.9070000  15.6620000  16.8610000  33.0870000  17.6580000
  18.0660000  35.9680000  15.3200000  19.0640000  37.0350000  17.2810000
  19.0360000  36.0810000  19.5140000  17.8760000  33.9570000  19.8840000
  17.3480000  34.8990000  14.8570000  16.2810000  33.1090000  15.2360000
  18.4170000  36.7360000  14.6500000  19.3740000  37.1240000  18.6110000
  19.4220000  37.8310000  16.6270000  19.3890000  36.0940000  20.8990000
  18.2350000  33.9390000  21.2440000  17.2670000  33.1620000  19.4910000
  17.1370000  34.8450000  13.8080000  19.8840000  38.0100000  18.9770000
  18.9900000  35.0500000  21.7220000  20.1310000  37.1570000  21.4400000
  17.9450000  33.1200000  21.8980000  19.3950000  35.0760000  23.1440000
  20.4920000  37.1970000  22.7560000  20.4320000  37.9600000  20.7910000
  20.1510000  36.1410000  23.6500000  19.0450000  34.0730000  24.0300000
  21.0620000  38.0420000  23.1190000  20.5680000  36.2210000  24.9910000
  19.4610000  34.1350000  25.3750000  18.4300000  33.2490000  23.6980000
  20.2070000  35.1980000  25.8210000  21.1490000  37.0580000  25.3520000
  19.2020000  33.3340000  26.0480000  20.5060000  35.2300000  26.8530000
  17.7110000  34.9510000  44.6360000  16.9740000  33.9010000  44.0670000
  18.1100000  35.9930000  43.7470000  18.0890000  35.0130000  46.0430000
  16.6720000  33.9070000  42.6910000  16.6440000  33.0870000  44.6870000
  17.8490000  35.9680000  42.3490000  18.8470000  37.0350000  44.3100000
  18.8190000  36.0810000  46.5430000  17.6590000  33.9570000  46.9130000
  17.1310000  34.8990000  41.8860000  16.0640000  33.1090000  42.2650000
  18.2000000  36.7360000  41.6790000  19.1570000  37.1240000  45.6400000
  19.2050000  37.8310000  43.6560000  19.1720000  36.0940000  47.9280000
  18.0180000  33.9390000  48.2730000  17.0500000  33.1620000  46.5200000
  16.9200000  34.8450000  40.8370000  19.6670000  38.0100000  46.0060000
  18.7730000  35.0500000  48.7510000  19.9140000  37.1570000  48.4690000
  17.7280000  33.1200000  48.9270000  19.1770000  35.0760000  50.1730000
  20.2750000  37.1970000  49.7850000  20.2150000  37.9600000  47.8200000
  19.9340000  36.1410000  50.6800000  18.8280000  34.0730000  51.0590000
  20.8450000  38.0420000  50.1480000  20.3510000  36.2210000  52.0200000
  19.2440000  34.1350000  52.4040000  18.2130000  33.2490000  50.7270000
  19.9900000  35.1980000  52.8500000  20.9320000  37.0580000  52.3810000
  18.9850000  33.3340000  53.0770000  20.2890000  35.2300000  53.8830000
  18.0360000  41.1050000   4.0920000  17.3000000  40.0550000   3.5230000
  18.4350000  42.1470000   3.2030000  18.4140000  41.1670000   5.4990000
  16.9980000  40.0610000   2.1470000  16.9700000  39.2410000   4.1440000
  18.1740000  42.1220000   1.8060000  19.1730000  43.1890000   3.7670000
  19.1450000  42.2350000   5.9990000  17.9850000  40.1110000   6.3690000
  17.4560000  41.0530000   1.3420000  16.3900000  39.2630000   1.7220000
  18.5260000  42.8900000   1.1350000  19.4830000  43.2780000   5.0960000
  19.5310000  43.9850000   3.1120000  19.4970000  42.2480000   7.3840000
  18.3440000  40.0930000   7.7290000  17.3760000  39.3160000   5.9760000
  17.2460000  40.9990000   0.2930000  19.9930000  44.1640000   5.4630000
  19.0980000  41.2040000   8.2070000  20.2390000  43.3110000   7.9250000
  18.0540000  39.2740000   8.3830000  19.5030000  41.2300000   9.6290000
  20.6000000  43.3510000   9.2410000  20.5400000  44.1140000   7.2760000
  20.2600000  42.2950000  10.1360000  19.1530000  40.2270000  10.5160000
  21.1700000  44.1960000   9.6050000  20.6760000  42.3750000  11.4770000
  19.5700000  40.2890000  11.8600000  18.5390000  39.4030000  10.1830000
  20.3160000  41.3520000  12.3060000  21.2580000  43.2120000  11.8370000
  19.3110000  39.4880000  12.5330000  20.6150000  41.3840000  13.3390000
  17.9280000  41.1050000  17.6070000  17.1910000  40.0550000  17.0380000
  18.3270000  42.1470000  16.7180000  18.3060000  41.1670000  19.0140000
  16.8890000  40.0610000  15.6620000  16.8610000  39.2410000  17.6580000
  18.0660000  42.1220000  15.3200000  19.0640000  43.1890000  17.2810000
  19.0360000  42.2350000  19.5140000  17.8760000  40.1110000  19.8840000
  17.3480000  41.0530000  14.8570000  16.2810000  39.2630000  15.2360000
  18.4170000  42.8900000  14.6500000  19.3740000  43.2780000  18.6110000
  19.4220000  43.9850000  16.6270000  19.3890000  42.2480000  20.8990000
  18.2350000  40.0930000  21.2440000  17.2670000  39.3160000  19.4910000
  17.1370000  40.9990000  13.8080000  19.8840000  44.1640000  18.9770000
  18.9900000  41.2040000  21.7220000  20.1310000  43.3110000  21.4400000
  17.9450000  39.2740000  21.8980000  19.3950000  41.2300000  23.1440000
  20.4920000  43.3510000  22.7560000  20.4320000  44.1140000  20.7910000
  20.1510000  42.2950000  23.6500000  19.0450000  40.2270000  24.0300000
  21.0620000  44.1960000  23.1190000  20.5680000  42.3750000  24.9910000
  19.4610000  40.2890000  25.3750000  18.4300000  39.4030000  23.6980000
  20.2070000  41.3520000  25.8210000  21.1490000  43.2120000  25.3520000
  19.2020000  39.4880000  26.0480000  20.5060000  41.3840000  26.8530000
  17.7110000  41.1050000  44.6360000  16.9740000  40.0550000  44.0670000
  18.1100000  42.1470000  43.7470000  18.0890000  41.1670000  46.0430000
  16.6720000  40.0610000  42.6910000  16.6440000  39.2410000  44.6870000
  17.8490000  42.1220000  42.3490000  18.8470000  43.1890000  44.3100000
  18.8190000  42.2350000  46.5430000  17.6590000  40.1110000  46.9130000
  17.1310000  41.0530000  41.8860000  16.0640000  39.2630000  42.2650000
  18.2000000  42.8900000  41.6790000  19.1570000  43.2780000  45.6400000
  19.2050000  43.9850000  43.6560000  19.1720000  42.2480000  47.9280000
  18.0180000  40.0930000  48.2730000  17.0500000  39.3160000  46.5200000
  16.9200000  40.9990000  40.8370000  19.6670000  44.1640000  46.0060000
  18.7730000  41.2040000  48.7510000  19.9140000  43.3110000  48.4690000
  17.7280000  39.2740000  48.9270000  19.1770000  41.2300000  50.1730000
  20.2750000  43.3510000  49.7850000  20.2150000  44.1140000  47.8200000
  19.9340000  42.2950000  50.6800000  18.8280000  40.2270000  51.0590000
  20.8450000  44.1960000  50.1480000  20.3510000  42.3750000  52.0200000
  19.2440000  40.2890000  52.4040000  18.2130000  39.4030000  50.7270000
  19.9900000  41.3520000  52.8500000  20.9320000  43.2120000  52.3810000
  18.9850000  39.4880000  53.0770000  20.2890000  41.3840000  53.8830000
  17.8190000  10.3350000  31.1210000  17.0830000   9.2850000  30.5520000
  18.2180000  11.3770000  30.2320000  18.1970000  10.3970000  32.5280000
  16.7810000   9.2910000  29.1770000  16.7530000   8.4710000  31.1730000
  17.9570000  11.3520000  28.8350000  18.9560000  12.4190000  30.7960000
  18.9280000  11.4650000  33.0280000  17.7680000   9.3410000  33.3990000
  17.2390000  10.2830000  28.3710000  16.1730000   8.4930000  28.7510000
  18.3090000  12.1200000  28.1640000  19.2660000  12.5080000  32.1250000
  19.3140000  13.2150000  30.1420000  19.2800000  11.4780000  34.4130000
  18.1270000   9.3230000  34.7580000  17.1590000   8.5460000  33.0050000
  17.0290000  10.2290000  27.3220000  19.7760000  13.3940000  32.4920000
  18.8810000  10.4340000  35.2370000  20.0220000  12.5410000  34.9540000
  17.8370000   8.5040000  35.4120000  19.2860000  10.4600000  36.6580000
  20.3830000  12.5810000  36.2700000  20.3230000  13.3440000  34.3050000
  20.0430000  11.5250000  37.1650000  18.9360000   9.4570000  37.5450000
  20.9530000  13.4260000  36.6340000  20.4590000  11.6050000  38.5060000
  19.3530000   9.5190000  38.8900000  18.3220000   8.6330000  37.2120000
  20.0990000  10.5820000  39.3350000  21.0410000  12.4420000  38.8670000
  19.0940000   8.7180000  39.5630000  20.3980000  10.6140000  40.3680000
  17.6020000  10.3350000  58.1500000  16.8660000   9.2850000  57.5820000
  18.0010000  11.3770000  57.2610000  17.9800000  10.3970000  59.5570000
  16.5640000   9.2910000  56.2060000  16.5360000   8.4710000  58.2020000
  17.7400000  11.3520000  55.8640000  18.7390000  12.4190000  57.8250000
  18.7110000  11.4650000  60.0570000  17.5510000   9.3410000  60.4280000
  17.0220000  10.2830000  55.4000000  15.9560000   8.4930000  55.7800000
  18.0920000  12.1200000  55.1930000  19.0490000  12.5080000  59.1550000
  19.0970000  13.2150000  57.1710000  19.0630000  11.4780000  61.4430000
  17.9100000   9.3230000  61.7870000  16.9420000   8.5460000  60.0340000
  16.8120000  10.2290000  54.3520000  19.5590000  13.3940000  59.5210000
  18.6640000  10.4340000  62.2660000  19.8050000  12.5410000  61.9830000
  17.6200000   8.5040000  62.4410000  19.0690000  10.4600000  63.6870000
  20.1660000  12.5810000  63.3000000  20.1060000  13.3440000  61.3340000
  19.8260000  11.5250000  64.1940000  18.7190000   9.4570000  64.5740000
  20.7360000  13.4260000  63.6630000  20.2420000  11.6050000  65.5350000
  19.1360000   9.5190000  65.9190000  18.1050000   8.6330000  64.2410000
  19.8820000  10.5820000  66.3650000  20.8240000  12.4420000  65.8960000
  18.8770000   8.7180000  66.5920000  20.1810000  10.6140000  67.3970000
  17.8190000  16.4890000  31.1210000  17.0830000  15.4390000  30.5520000
  18.2180000  17.5310000  30.2320000  18.1970000  16.5510000  32.5280000
  16.7810000  15.4450000  29.1770000  16.7530000  14.6250000  31.1730000
  17.9570000  17.5060000  28.8350000  18.9560000  18.5730000  30.7960000
  18.9280000  17.6190000  33.0280000  17.7680000  15.4950000  33.3990000
  17.2390000  16.4370000  28.3710000  16.1730000  14.6470000  28.7510000
  18.3090000  18.2740000  28.1640000  19.2660000  18.6620000  32.1250000
  19.3140000  19.3690000  30.1420000  19.2800000  17.6320000  34.4130000
  18.1270000  15.4770000  34.7580000  17.1590000  14.7000000  33.0050000
  17.0290000  16.3830000  27.3220000  19.7760000  19.5480000  32.4920000
  18.8810000  16.5880000  35.2370000  20.0220000  18.6950000  34.9540000
  17.8370000  14.6580000  35.4120000  19.2860000  16.6140000  36.6580000
  20.3830000  18.7350000  36.2700000  20.3230000  19.4980000  34.3050000
  20.0430000  17.6790000  37.1650000  18.9360000  15.6110000  37.5450000
  20.9530000  19.5800000  36.6340000  20.4590000  17.7590000  38.5060000
  19.3530000  15.6730000  38.8900000  18.3220000  14.7870000  37.2120000
  20.0990000  16.7360000  39.3350000  21.0410000  18.5960000  38.8670000
  19.0940000  14.8720000  39.5630000  20.3980000  16.7680000  40.3680000
  17.6020000  16.4890000  58.1500000  16.8660000  15.4390000  57.5820000
  18.0010000  17.5310000  57.2610000  17.9800000  16.5510000  59.5570000
  16.5640000  15.4450000  56.2060000  16.5360000  14.6250000  58.2020000
  17.7400000  17.5060000  55.8640000  18.7390000  18.5730000  57.8250000
  18.7110000  17.6190000  60.0570000  17.5510000  15.4950000  60.4280000
  17.0220000  16.4370000  55.4000000  15.9560000  14.6470000  55.7800000
  18.0920000  18.2740000  55.1930000  19.0490000  18.6620000  59.1550000
  19.0970000  19.3690000  57.1710000  19.0630000  17.6320000  61.4430000
  17.9100000  15.4770000  61.7870000  16.9420000  14.7000000  60.0340000
  16.8120000  16.3830000  54.3520000  19.5590000  19.5480000  59.5210000
  18.6640000  16.5880000  62.2660000  19.8050000  18.6950000  61.9830000
  17.6200000  14.6580000  62.4410000  19.0690000  16.6140000  63.6870000
  20.1660000  18.7350000  63.3000000  20.1060000  19.4980000  61.3340000
  19.8260000  17.6790000  64.1940000  18.7190000  15.6110000  64.5740000
  20.7360000  19.5800000  63.6630000  20.2420000  17.7590000  65.5350000
  19.1360000  15.6730000  65.9190000  18.1050000  14.7870000  64.2410000
  19.8820000  16.7360000  66.3650000  20.8240000  18.5960000  65.8960000
  18.8770000  14.8720000  66.5920000  20.1810000  16.7680000  67.3970000
  17.8190000  22.6430000  31.1210000  17.0830000  21.5930000  30.5520000
  18.2180000  23.6850000  30.2320000  18.1970000  22.7050000  32.5280000
  16.7810000  21.5990000  29.1770000  16.7530000  20.7790000  31.1730000
  17.9570000  23.6600000  28.8350000  18.9560000  24.7270000  30.7960000
  18.9280000  23.7730000  33.0280000  17.7680000  21.6490000  33.3990000
  17.2390000  22.5910000  28.3710000  16.1730000  20.8010000  28.7510000
  18.3090000  24.4280000  28.1640000  19.2660000  24.8160000  32.1250000
  19.3140000  25.5230000  30.1420000  19.2800000  23.7860000  34.4130000
  18.1270000  21.6310000  34.7580000  17.1590000  20.8540000  33.0050000
  17.0290000  22.5370000  27.3220000  19.7760000  25.7020000  32.4920000
  18.8810000  22.7420000  35.2370000  20.0220000  24.8490000  34.9540000
  17.8370000  20.8120000  35.4120000  19.2860000  22.7680000  36.6580000
  20.3830000  24.8890000  36.2700000  20.3230000  25.6520000  34.3050000
  20.0430000  23.8330000  37.1650000  18.9360000  21.7650000  37.5450000
  20.9530000  25.7340000  36.6340000  20.4590000  23.9130000  38.5060000
  19.3530000  21.8270000  38.8900000  18.3220000  20.9410000  37.2120000
  20.0990000  22.8900000  39.3350000  21.0410000  24.7500000  38.8670000
  19.0940000  21.0260000  39.5630000  20.3980000  22.9220000  40.3680000
  17.6020000  22.6430000  58.1500000  16.8660000  21.5930000  57.5820000
  18.0010000  23.6850000  57.2610000  17.9800000  22.7050000  59.5570000
  16.5640000  21.5990000  56.2060000  16.5360000  20.7790000  58.2020000
  17.7400000  23.6600000  55.8640000  18.7390000  24.7270000  57.8250000
  18.7110000  23.7730000  60.0570000  17.5510000  21.6490000  60.4280000
  17.0220000  22.5910000  55.4000000  15.9560000  20.8010000  55.7800000
  18.0920000  24.4280000  55.1930000  19.0490000  24.8160000  59.1550000
  19.0970000  25.5230000  57.1710000  19.0630000  23.7860000  61.4430000
  17.9100000  21.6310000  61.7870000  16.9420000  20.8540000  60.0340000
  16.8120000  22.5370000  54.3520000  19.5590000  25.7020000  59.5210000
  18.6640000  22.7420000  62.2660000  19.8050000  24.8490000  61.9830000
  17.6200000  20.8120000  62.4410000  19.0690000  22.7680000  63.6870000
  20.1660000  24.8890000  63.3000000  20.1060000  25.6520000  61.3340000
  19.8260000  23.8330000  64.1940000  18.7190000  21.7650000  64.5740000
  20.7360000  25.7340000  63.6630000  20.2420000  23.9130000  65.5350000
  19.1360000  21.8270000  65.9190000  18.1050000  20.9410000  64.2410000
  19.8820000  22.8900000  66.3650000  20.8240000  24.7500000  65.8960000
  18.8770000  21.0260000  66.5920000  20.1810000  22.9220000  67.3970000
  17.8190000  28.7970000  31.1210000  17.0830000  27.7470000  30.5520000
  18.2180000  29.8390000  30.2320000  18.1970000  28.8590000  32.5280000
  16.7810000  27.7530000  29.1770000  16.7530000  26.9330000  31.1730000
  17.9570000  29.8140000  28.8350000  18.9560000  30.8810000  30.7960000
  18.9280000  29.9270000  33.0280000  17.7680000  27.8030000  33.3990000
  17.2390000  28.7450000  28.3710000  16.1730000  26.9550000  28.7510000
  18.3090000  30.5820000  28.1640000  19.2660000  30.9700000  32.1250000
  19.3140000  31.6770000  30.1420000  19.2800000  29.9400000  34.4130000
  18.1270000  27.7850000  34.7580000  17.1590000  27.0080000  33.0050000
  17.0290000  28.6910000  27.3220000  19.7760000  31.8560000  32.4920000
  18.8810000  28.8960000  35.2370000  20.0220000  31.0030000  34.9540000
  17.8370000  26.9660000  35.4120000  19.2860000  28.9220000  36.6580000
  20.3830000  31.0430000  36.2700000  20.3230000  31.8060000  34.3050000
  20.0430000  29.9870000  37.1650000  18.9360000  27.9190000  37.5450000
  20.9530000  31.8880000  36.6340000  20.4590000  30.0670000  38.5060000
  19.3530000  27.9810000  38.8900000  18.3220000  27.0950000  37.2120000
  20.0990000  29.0440000  39.3350000  21.0410000  30.9040000  38.8670000
  19.0940000  27.1800000  39.5630000  20.3980000  29.0760000  40.3680000
  17.6020000  28.7970000  58.1500000  16.8660000  27.7470000  57.5820000
  18.0010000  29.8390000  57.2610000  17.9800000  28.8590000  59.5570000
  16.5640000  27.7530000  56.2060000  16.5360000  26.9330000  58.2020000
  17.7400000  29.8140000  55.8640000  18.7390000  30.8810000  57.8250000
  18.7110000  29.9270000  60.0570000  17.5510000  27.8030000  60.4280000
  17.0220000  28.7450000  55.4000000  15.9560000  26.9550000  55.7800000
  18.0920000  30.5820000  55.1930000  19.0490000  30.9700000  59.1550000
  19.0970000  31.6770000  57.1710000  19.0630000  29.9400000  61.4430000
  17.9100000  27.7850000  61.7870000  16.9420000  27.0080000  60.0340000
  16.8120000  28.6910000  54.3520000  19.5590000  31.8560000  59.5210000
  18.6640000  28.8960000  62.2660000  19.8050000  31.0030000  61.9830000
  17.6200000  26.9660000  62.4410000  19.0690000  28.9220000  63.6870000
  20.1660000  31.0430000  63.3000000  20.1060000  31.8060000  61.3340000
  19.8260000  29.9870000  64.1940000  18.7190000  27.9190000  64.5740000
  20.7360000  31.8880000  63.6630000  20.2420000  30.0670000  65.5350000
  19.1360000  27.9810000  65.9190000  18.1050000  27.0950000  64.2410000
  19.8820000  29.0440000  66.3650000  20.8240000  30.9040000  65.8960000
  18.8770000  27.1800000  66.5920000  20.1810000  29.0760000  67.3970000
  17.8190000  34.9510000  31.1210000  17.0830000  33.9010000  30.5520000
  18.2180000  35.9930000  30.2320000  18.1970000  35.0130000  32.5280000
  16.7810000  33.9070000  29.1770000  16.7530000  33.0870000  31.1730000
  17.9570000  35.9680000  28.8350000  18.9560000  37.0350000  30.7960000
  18.9280000  36.0810000  33.0280000  17.7680000  33.9570000  33.3990000
  17.2390000  34.8990000  28.3710000  16.1730000  33.1090000  28.7510000
  18.3090000  36.7360000  28.1640000  19.2660000  37.1240000  32.1250000
  19.3140000  37.8310000  30.1420000  19.2800000  36.0940000  34.4130000
  18.1270000  33.9390000  34.7580000  17.1590000  33.1620000  33.0050000
  17.0290000  34.8450000  27.3220000  19.7760000  38.0100000  32.4920000
  18.8810000  35.0500000  35.2370000  20.0220000  37.1570000  34.9540000
  17.8370000  33.1200000  35.4120000  19.2860000  35.0760000  36.6580000
  20.3830000  37.1970000  36.2700000  20.3230000  37.9600000  34.3050000
  20.0430000  36.1410000  37.1650000  18.9360000  34.0730000  37.5450000
  20.9530000  38.0420000  36.6340000  20.4590000  36.2210000  38.5060000
  19.3530000  34.1350000  38.8900000  18.3220000  33.2490000  37.2120000
  20.0990000  35.1980000  39.3350000  21.0410000  37.0580000  38.8670000
  19.0940000  33.3340000  39.5630000  20.3980000  35.2300000  40.3680000
  17.6020000  34.9510000  58.1500000  16.8660000  33.9010000  57.5820000
  18.0010000  35.9930000  57.2610000  17.9800000  35.0130000  59.5570000
  16.5640000  33.9070000  56.2060000  16.5360000  33.0870000  58.2020000
  17.7400000  35.9680000  55.8640000  18.7390000  37.0350000  57.8250000
  18.7110000  36.0810000  60.0570000  17.5510000  33.9570000  60.4280000
  17.0220000  34.8990000  55.4000000  15.9560000  33.1090000  55.7800000
  18.0920000  36.7360000  55.1930000  19.0490000  37.1240000  59.1550000
  19.0970000  37.8310000  57.1710000  19.0630000  36.0940000  61.4430000
  17.9100000  33.9390000  61.7870000  16.9420000  33.1620000  60.0340000
  16.8120000  34.8450000  54.3520000  19.5590000  38.0100000  59.5210000
  18.6640000  35.0500000  62.2660000  19.8050000  37.1570000  61.9830000
  17.6200000  33.1200000  62.4410000  19.0690000  35.0760000  63.6870000
  20.1660000  37.1970000  63.3000000  20.1060000  37.9600000  61.3340000
  19.8260000  36.1410000  64.1940000  18.7190000  34.0730000  64.5740000
  20.7360000  38.0420000  63.6630000  20.2420000  36.2210000  65.5350000
  19.1360000  34.1350000  65.9190000  18.1050000  33.2490000  64.2410000
  19.8820000  35.1980000  66.3650000  20.8240000  37.0580000  65.8960000
  18.8770000  33.3340000  66.5920000  20.1810000  35.2300000  67.3970000
  17.8190000  41.1050000  31.1210000  17.0830000  40.0550000  30.5520000
  18.2180000  42.1470000  30.2320000  18.1970000  41.1670000  32.5280000
  16.7810000  40.0610000  29.1770000  16.7530000  39.2410000  31.1730000
  17.9570000  42.1220000  28.8350000  18.9560000  43.1890000  30.7960000
  18.9280000  42.2350000  33.0280000  17.7680000  40.1110000  33.3990000
  17.2390000  41.0530000  28.3710000  16.1730000  39.2630000  28.7510000
  18.3090000  42.8900000  28.1640000  19.2660000  43.2780000  32.1250000
  19.3140000  43.9850000  30.1420000  19.2800000  42.2480000  34.4130000
  18.1270000  40.0930000  34.7580000  17.1590000  39.3160000  33.0050000
  17.0290000  40.9990000  27.3220000  19.7760000  44.1640000  32.4920000
  18.8810000  41.2040000  35.2370000  20.0220000  43.3110000  34.9540000
  17.8370000  39.2740000  35.4120000  19.2860000  41.2300000  36.6580000
  20.3830000  43.3510000  36.2700000  20.3230000  44.1140000  34.3050000
  20.0430000  42.2950000  37.1650000  18.9360000  40.2270000  37.5450000
  20.9530000  44.1960000  36.6340000  20.4590000  42.3750000  38.5060000
  19.3530000  40.2890000  38.8900000  18.3220000  39.4030000  37.2120000
  20.0990000  41.3520000  39.3350000  21.0410000  43.2120000  38.8670000
  19.0940000  39.4880000  39.5630000  20.3980000  41.3840000  40.3680000
  17.6020000  41.1050000  58.1500000  16.8660000  40.0550000  57.5820000
  18.0010000  42.1470000  57.2610000  17.9800000  41.1670000  59.5570000
  16.5640000  40.0610000  56.2060000  16.5360000  39.2410000  58.2020000
  17.7400000  42.1220000  55.8640000  18.7390000  43.1890000  57.8250000
  18.7110000  42.2350000  60.0570000  17.5510000  40.1110000  60.4280000
  17.0220000  41.0530000  55.4000000  15.9560000  39.2630000  55.7800000
  18.0920000  42.8900000  55.1930000  19.0490000  43.2780000  59.1550000
  19.0970000  43.9850000  57.1710000  19.0630000  42.2480000  61.4430000
  17.9100000  40.0930000  61.7870000  16.9420000  39.3160000  60.0340000
  16.8120000  40.9990000  54.3520000  19.5590000  44.1640000  59.5210000
  18.6640000  41.2040000  62.2660000  19.8050000  43.3110000  61.9830000
  17.6200000  39.2740000  62.4410000  19.0690000  41.2300000  63.6870000
  20.1660000  43.3510000  63.3000000  20.1060000  44.1140000  61.3340000
  19.8260000  42.2950000  64.1940000  18.7190000  40.2270000  64.5740000
  20.7360000  44.1960000  63.6630000  20.2420000  42.3750000  65.5350000
  19.1360000  40.2890000  65.9190000  18.1050000  39.4030000  64.2410000
  19.8820000  41.3520000  66.3650000  20.8240000  43.2120000  65.8960000
  18.8770000  39.4880000  66.5920000  20.1810000  41.3840000  67.3970000
  18.0360000   4.1810000   4.0920000  17.3000000   3.1310000   3.5230000
  18.4350000   5.2230000   3.2030000  18.4140000   4.2430000   5.4990000
  16.9980000   3.1370000   2.1470000  16.9700000   2.3170000   4.1440000
  18.1740000   5.1980000   1.8060000  19.1730000   6.2650000   3.7670000
  19.1450000   5.3110000   5.9990000  17.9850000   3.1870000   6.3690000
  17.4560000   4.1290000   1.3420000  16.3900000   2.3390000   1.7220000
  18.5260000   5.9660000   1.1350000  19.4830000   6.3540000   5.0960000
  19.5310000   7.0610000   3.1120000  19.4970000   5.3240000   7.3840000
  18.3440000   3.1690000   7.7290000  17.3760000   2.3920000   5.9760000
  17.2460000   4.0750000   0.2930000  19.9930000   7.2400000   5.4630000
  19.0980000   4.2800000   8.2070000  20.2390000   6.3870000   7.9250000
  18.0540000   2.3500000   8.3830000  19.5030000   4.3060000   9.6290000
  20.6000000   6.4270000   9.2410000  20.5400000   7.1900000   7.2760000
  20.2600000   5.3710000  10.1360000  19.1530000   3.3030000  10.5160000
  21.1700000   7.2720000   9.6050000  20.6760000   5.4510000  11.4770000
  19.5700000   3.3650000  11.8600000  18.5390000   2.4790000  10.1830000
  20.3160000   4.4280000  12.3060000  21.2580000   6.2880000  11.8370000
  19.3110000   2.5640000  12.5330000  20.6150000   4.4600000  13.3390000
  17.9280000   4.1810000  17.6070000  17.1910000   3.1310000  17.0380000
  18.3270000   5.2230000  16.7180000  18.3060000   4.2430000  19.0140000
  16.8890000   3.1370000  15.6620000  16.8610000   2.3170000  17.6580000
  18.0660000   5.1980000  15.3200000  19.0640000   6.2650000  17.2810000
  19.0360000   5.3110000  19.5140000  17.8760000   3.1870000  19.8840000
  17.3480000   4.1290000  14.8570000  16.2810000   2.3390000  15.2360000
  18.4170000   5.9660000  14.6500000  19.3740000   6.3540000  18.6110000
  19.4220000   7.0610000  16.6270000  19.3890000   5.3240000  20.8990000
  18.2350000   3.1690000  21.2440000  17.2670000   2.3920000  19.4910000
  17.1370000   4.0750000  13.8080000  19.8840000   7.2400000  18.9770000
  18.9900000   4.2800000  21.7220000  20.1310000   6.3870000  21.4400000
  17.9450000   2.3500000  21.8980000  19.3950000   4.3060000  23.1440000
  20.4920000   6.4270000  22.7560000  20.4320000   7.1900000  20.7910000
  20.1510000   5.3710000  23.6500000  19.0450000   3.3030000  24.0300000
  21.0620000   7.2720000  23.1190000  20.5680000   5.4510000  24.9910000
  19.4610000   3.3650000  25.3750000  18.4300000   2.4790000  23.6980000
  20.2070000   4.4280000  25.8210000  21.1490000   6.2880000  25.3520000
  19.2020000   2.5640000  26.0480000  20.5060000   4.4600000  26.8530000
  17.7110000   4.1810000  44.6360000  16.9740000   3.1310000  44.0670000
  18.1100000   5.2230000  43.7470000  18.0890000   4.2430000  46.0430000
  16.6720000   3.1370000  42.6910000  16.6440000   2.3170000  44.6870000
  17.8490000   5.1980000  42.3490000  18.8470000   6.2650000  44.3100000
  18.8190000   5.3110000  46.5430000  17.6590000   3.1870000  46.9130000
  17.1310000   4.1290000  41.8860000  16.0640000   2.3390000  42.2650000
  18.2000000   5.9660000  41.6790000  19.1570000   6.3540000  45.6400000
  19.2050000   7.0610000  43.6560000  19.1720000   5.3240000  47.9280000
  18.0180000   3.1690000  48.2730000  17.0500000   2.3920000  46.5200000
  16.9200000   4.0750000  40.8370000  19.6670000   7.2400000  46.0060000
  18.7730000   4.2800000  48.7510000  19.9140000   6.3870000  48.4690000
  17.7280000   2.3500000  48.9270000  19.1770000   4.3060000  50.1730000
  20.2750000   6.4270000  49.7850000  20.2150000   7.1900000  47.8200000
  19.9340000   5.3710000  50.6800000  18.8280000   3.3030000  51.0590000
  20.8450000   7.2720000  50.1480000  20.3510000   5.4510000  52.0200000
  19.2440000   3.3650000  52.4040000  18.2130000   2.4790000  50.7270000
  19.9900000   4.4280000  52.8500000  20.9320000   6.2880000  52.3810000
  18.9850000   2.5640000  53.0770000  20.2890000   4.4600000  53.8830000
  17.6020000   4.1810000  58.1500000  16.8660000   3.1310000  57.5820000
  18.0010000   5.2230000  57.2610000  17.9800000   4.2430000  59.5570000
  16.5640000   3.1370000  56.2060000  16.5360000   2.3170000  58.2020000
  17.7400000   5.1980000  55.8640000  18.7390000   6.2650000  57.8250000
  18.7110000   5.3110000  60.0570000  17.5510000   3.1870000  60.4280000
  17.0220000   4.1290000  55.4000000  15.9560000   2.3390000  55.7800000
  18.0920000   5.9660000  55.1930000  19.0490000   6.3540000  59.1550000
  19.0970000   7.0610000  57.1710000  19.0630000   5.3240000  61.4430000
  17.9100000   3.1690000  61.7870000  16.9420000   2.3920000  60.0340000
  16.8120000   4.0750000  54.3520000  19.5590000   7.2400000  59.5210000
  18.6640000   4.2800000  62.2660000  19.8050000   6.3870000  61.9830000
  17.6200000   2.3500000  62.4410000  19.0690000   4.3060000  63.6870000
  20.1660000   6.4270000  63.3000000  20.1060000   7.1900000  61.3340000
  19.8260000   5.3710000  64.1940000  18.7190000   3.3030000  64.5740000
  20.7360000   7.2720000  63.6630000  20.2420000   5.4510000  65.5350000
  19.1360000   3.3650000  65.9190000  18.1050000   2.4790000  64.2410000
  19.8820000   4.4280000  66.3650000  20.8240000   6.2880000  65.8960000
  18.8770000   2.5640000  66.5920000  20.1810000   4.4600000  67.3970000
  17.8190000   4.1810000  31.1210000  17.0830000   3.1310000  30.5520000
  18.2180000   5.2230000  30.2320000  18.1970000   4.2430000  32.5280000
  16.7810000   3.1370000  29.1770000  16.7530000   2.3170000  31.1730000
  17.9570000   5.1980000  28.8350000  18.9560000   6.2650000  30.7960000
  18.9280000   5.3110000  33.0280000  17.7680000   3.1870000  33.3990000
  17.2390000   4.1290000  28.3710000  16.1730000   2.3390000  28.7510000
  18.3090000   5.9660000  28.1640000  19.2660000   6.3540000  32.1250000
  19.3140000   7.0610000  30.1420000  19.2800000   5.3240000  34.4130000
  18.1270000   3.1690000  34.7580000  17.1590000   2.3920000  33.0050000
  17.0290000   4.0750000  27.3220000  19.7760000   7.2400000  32.4920000
  18.8810000   4.2800000  35.2370000  20.0220000   6.3870000  34.9540000
  17.8370000   2.3500000  35.4120000  19.2860000   4.3060000  36.6580000
  20.3830000   6.4270000  36.2700000  20.3230000   7.1900000  34.3050000
  20.0430000   5.3710000  37.1650000  18.9360000   3.3030000  37.5450000
  20.9530000   7.2720000  36.6340000  20.4590000   5.4510000  38.5060000
  19.3530000   3.3650000  38.8900000  18.3220000   2.4790000  37.2120000
  20.0990000   4.4280000  39.3350000  21.0410000   6.2880000  38.8670000
  19.0940000   2.5640000  39.5630000  20.3980000   4.4600000  40.3680000
  23.9300000   7.2580000  49.9660000  24.6660000   6.2080000  50.5350000
  23.5310000   8.3000000  50.8550000  23.5520000   7.3200000  48.5590000
  24.9680000   6.2140000  51.9110000  24.9960000   5.3940000  49.9150000
  23.7920000   8.2750000  52.2530000  22.7930000   9.3420000  50.2920000
  22.8210000   8.3880000  48.0590000  23.9810000   6.2640000  47.6890000
  24.5100000   7.2060000  52.7160000  25.5760000   5.4160000  52.3370000
  23.4400000   9.0430000  52.9230000  22.4830000   9.4310000  48.9620000
  22.4350000  10.1380000  50.9460000  22.4690000   8.4010000  46.6740000
  23.6220000   6.2460000  46.3290000  24.5900000   5.4690000  48.0820000
  24.7200000   7.1520000  53.7650000  21.9730000  10.3170000  48.5960000
  22.8680000   7.3570000  45.8510000  21.7270000   9.4640000  46.1330000
  23.9120000   5.4270000  45.6750000  22.4630000   7.3830000  44.4290000
  21.3660000   9.5040000  44.8170000  21.4260000  10.2670000  46.7820000
  21.7060000   8.4480000  43.9220000  22.8130000   6.3800000  43.5430000
  20.7960000  10.3490000  44.4530000  21.2900000   8.5280000  42.5820000
  22.3960000   6.4420000  42.1980000  23.4270000   5.5560000  43.8750000
  21.6500000   7.5050000  41.7520000  20.7080000   9.3650000  42.2210000
  22.6550000   5.6410000  41.5250000  21.3510000   7.5370000  40.7190000
  23.9300000  13.4120000  49.9660000  24.6660000  12.3620000  50.5350000
  23.5310000  14.4540000  50.8550000  23.5520000  13.4740000  48.5590000
  24.9680000  12.3680000  51.9110000  24.9960000  11.5480000  49.9150000
  23.7920000  14.4290000  52.2530000  22.7930000  15.4960000  50.2920000
  22.8210000  14.5420000  48.0590000  23.9810000  12.4180000  47.6890000
  24.5100000  13.3600000  52.7160000  25.5760000  11.5700000  52.3370000
  23.4400000  15.1970000  52.9230000  22.4830000  15.5850000  48.9620000
  22.4350000  16.2920000  50.9460000  22.4690000  14.5550000  46.6740000
  23.6220000  12.4000000  46.3290000  24.5900000  11.6230000  48.0820000
  24.7200000  13.3060000  53.7650000  21.9730000  16.4710000  48.5960000
  22.8680000  13.5110000  45.8510000  21.7270000  15.6180000  46.1330000
  23.9120000  11.5810000  45.6750000  22.4630000  13.5370000  44.4290000
  21.3660000  15.6580000  44.8170000  21.4260000  16.4210000  46.7820000
  21.7060000  14.6020000  43.9220000  22.8130000  12.5340000  43.5430000
  20.7960000  16.5030000  44.4530000  21.2900000  14.6820000  42.5820000
  22.3960000  12.5960000  42.1980000  23.4270000  11.7100000  43.8750000
  21.6500000  13.6590000  41.7520000  20.7080000  15.5190000  42.2210000
  22.6550000  11.7950000  41.5250000  21.3510000  13.6910000  40.7190000
  23.9300000  19.5660000  49.9660000  24.6660000  18.5160000  50.5350000
  23.5310000  20.6080000  50.8550000  23.5520000  19.6280000  48.5590000
  24.9680000  18.5220000  51.9110000  24.9960000  17.7020000  49.9150000
  23.7920000  20.5830000  52.2530000  22.7930000  21.6500000  50.2920000
  22.8210000  20.6960000  48.0590000  23.9810000  18.5720000  47.6890000
  24.5100000  19.5140000  52.7160000  25.5760000  17.7240000  52.3370000
  23.4400000  21.3510000  52.9230000  22.4830000  21.7390000  48.9620000
  22.4350000  22.4460000  50.9460000  22.4690000  20.7090000  46.6740000
  23.6220000  18.5540000  46.3290000  24.5900000  17.7770000  48.0820000
  24.7200000  19.4600000  53.7650000  21.9730000  22.6250000  48.5960000
  22.8680000  19.6650000  45.8510000  21.7270000  21.7720000  46.1330000
  23.9120000  17.7350000  45.6750000  22.4630000  19.6910000  44.4290000
  21.3660000  21.8120000  44.8170000  21.4260000  22.5750000  46.7820000
  21.7060000  20.7560000  43.9220000  22.8130000  18.6880000  43.5430000
  20.7960000  22.6570000  44.4530000  21.2900000  20.8360000  42.5820000
  22.3960000  18.7500000  42.1980000  23.4270000  17.8640000  43.8750000
  21.6500000  19.8130000  41.7520000  20.7080000  21.6730000  42.2210000
  22.6550000  17.9490000  41.5250000  21.3510000  19.8450000  40.7190000
  23.9300000  25.7200000  49.9660000  24.6660000  24.6700000  50.5350000
  23.5310000  26.7620000  50.8550000  23.5520000  25.7820000  48.5590000
  24.9680000  24.6760000  51.9110000  24.9960000  23.8560000  49.9150000
  23.7920000  26.7370000  52.2530000  22.7930000  27.8040000  50.2920000
  22.8210000  26.8500000  48.0590000  23.9810000  24.7260000  47.6890000
  24.5100000  25.6680000  52.7160000  25.5760000  23.8780000  52.3370000
  23.4400000  27.5050000  52.9230000  22.4830000  27.8930000  48.9620000
  22.4350000  28.6000000  50.9460000  22.4690000  26.8630000  46.6740000
  23.6220000  24.7080000  46.3290000  24.5900000  23.9310000  48.0820000
  24.7200000  25.6140000  53.7650000  21.9730000  28.7790000  48.5960000
  22.8680000  25.8190000  45.8510000  21.7270000  27.9260000  46.1330000
  23.9120000  23.8890000  45.6750000  22.4630000  25.8450000  44.4290000
  21.3660000  27.9660000  44.8170000  21.4260000  28.7290000  46.7820000
  21.7060000  26.9100000  43.9220000  22.8130000  24.8420000  43.5430000
  20.7960000  28.8110000  44.4530000  21.2900000  26.9900000  42.5820000
  22.3960000  24.9040000  42.1980000  23.4270000  24.0180000  43.8750000
  21.6500000  25.9670000  41.7520000  20.7080000  27.8270000  42.2210000
  22.6550000  24.1030000  41.5250000  21.3510000  25.9990000  40.7190000
  23.9300000  31.8740000  49.9660000  24.6660000  30.8240000  50.5350000
  23.5310000  32.9160000  50.8550000  23.5520000  31.9360000  48.5590000
  24.9680000  30.8300000  51.9110000  24.9960000  30.0100000  49.9150000
  23.7920000  32.8910000  52.2530000  22.7930000  33.9580000  50.2920000
  22.8210000  33.0040000  48.0590000  23.9810000  30.8800000  47.6890000
  24.5100000  31.8220000  52.7160000  25.5760000  30.0320000  52.3370000
  23.4400000  33.6590000  52.9230000  22.4830000  34.0470000  48.9620000
  22.4350000  34.7540000  50.9460000  22.4690000  33.0170000  46.6740000
  23.6220000  30.8620000  46.3290000  24.5900000  30.0850000  48.0820000
  24.7200000  31.7680000  53.7650000  21.9730000  34.9330000  48.5960000
  22.8680000  31.9730000  45.8510000  21.7270000  34.0800000  46.1330000
  23.9120000  30.0430000  45.6750000  22.4630000  31.9990000  44.4290000
  21.3660000  34.1200000  44.8170000  21.4260000  34.8830000  46.7820000
  21.7060000  33.0640000  43.9220000  22.8130000  30.9960000  43.5430000
  20.7960000  34.9650000  44.4530000  21.2900000  33.1440000  42.5820000
  22.3960000  31.0580000  42.1980000  23.4270000  30.1720000  43.8750000
  21.6500000  32.1210000  41.7520000  20.7080000  33.9810000  42.2210000
  22.6550000  30.2570000  41.5250000  21.3510000  32.1530000  40.7190000
  24.2550000   1.1040000   9.4220000  24.9920000   0.0540000   9.9910000
  23.8560000   2.1460000  10.3120000  23.8770000   1.1660000   8.0150000
  25.2940000   0.0600000  11.3670000  25.3220000  -0.7600000   9.3710000
  24.1170000   2.1210000  11.7090000  23.1190000   3.1880000   9.7480000
  23.1470000   2.2340000   7.5150000  24.3070000   0.1100000   7.1450000
  24.8350000   1.0520000  12.1730000  25.9020000  -0.7380000  11.7930000
  23.7660000   2.8890000  12.3790000  22.8090000   3.2770000   8.4180000
  22.7610000   3.9840000  10.4020000  22.7940000   2.2470000   6.1300000
  23.9480000   0.0920000   5.7860000  24.9160000  -0.6850000   7.5380000
  25.0460000   0.9980000  13.2210000  22.2990000   4.1630000   8.0520000
  23.1930000   1.2030000   5.3070000  22.0520000   3.3100000   5.5900000
  24.2380000  -0.7270000   5.1310000  22.7880000   1.2290000   3.8850000
  21.6910000   3.3500000   4.2730000  21.7510000   4.1130000   6.2380000
  22.0320000   2.2940000   3.3790000  23.1380000   0.2260000   2.9990000
  21.1210000   4.1950000   3.9100000  21.6150000   2.3740000   2.0380000
  22.7220000   0.2880000   1.6540000  23.7530000  -0.5980000   3.3310000
  21.9760000   1.3510000   1.2080000  21.0340000   3.2110000   1.6770000
  22.9810000  -0.5130000   0.9810000  21.6770000   1.3830000   0.1760000
  23.9300000   1.1040000  49.9660000  24.6660000   0.0540000  50.5350000
  23.5310000   2.1460000  50.8550000  23.5520000   1.1660000  48.5590000
  24.9680000   0.0600000  51.9110000  24.9960000  -0.7600000  49.9150000
  23.7920000   2.1210000  52.2530000  22.7930000   3.1880000  50.2920000
  22.8210000   2.2340000  48.0590000  23.9810000   0.1100000  47.6890000
  24.5100000   1.0520000  52.7160000  25.5760000  -0.7380000  52.3370000
  23.4400000   2.8890000  52.9230000  22.4830000   3.2770000  48.9620000
  22.4350000   3.9840000  50.9460000  22.4690000   2.2470000  46.6740000
  23.6220000   0.0920000  46.3290000  24.5900000  -0.6850000  48.0820000
  24.7200000   0.9980000  53.7650000  21.9730000   4.1630000  48.5960000
  22.8680000   1.2030000  45.8510000  21.7270000   3.3100000  46.1330000
  23.9120000  -0.7270000  45.6750000  22.4630000   1.2290000  44.4290000
  21.3660000   3.3500000  44.8170000  21.4260000   4.1130000  46.7820000
  21.7060000   2.2940000  43.9220000  22.8130000   0.2260000  43.5430000
  20.7960000   4.1950000  44.4530000  21.2900000   2.3740000  42.5820000
  22.3960000   0.2880000  42.1980000  23.4270000  -0.5980000  43.8750000
  21.6500000   1.3510000  41.7520000  20.7080000   3.2110000  42.2210000
  22.6550000  -0.5130000  41.5250000  21.3510000   1.3830000  40.7190000
  23.8210000   1.1040000  63.4810000  24.5580000   0.0540000  64.0500000
  23.4220000   2.1460000  64.3700000  23.4430000   1.1660000  62.0740000
  24.8600000   0.0600000  65.4250000  24.8870000  -0.7600000  63.4290000
  23.6830000   2.1210000  65.7670000  22.6850000   3.1880000  63.8060000
  22.7130000   2.2340000  61.5740000  23.8730000   0.1100000  61.2030000
  24.4010000   1.0520000  66.2310000  25.4680000  -0.7380000  65.8510000
  23.3320000   2.8890000  66.4380000  22.3750000   3.2770000  62.4760000
  22.3270000   3.9840000  64.4600000  22.3600000   2.2470000  60.1880000
  23.5140000   0.0920000  59.8440000  24.4820000  -0.6850000  61.5970000
  24.6120000   0.9980000  67.2800000  21.8650000   4.1630000  62.1100000
  22.7590000   1.2030000  59.3650000  21.6180000   3.3100000  59.6480000
  23.8040000  -0.7270000  59.1900000  22.3540000   1.2290000  57.9440000
  21.2570000   3.3500000  58.3320000  21.3170000   4.1130000  60.2970000
  21.5980000   2.2940000  57.4370000  22.7040000   0.2260000  57.0570000
  20.6870000   4.1950000  57.9680000  21.1810000   2.3740000  56.0960000
  22.2880000   0.2880000  55.7120000  23.3190000  -0.5980000  57.3900000
  21.5420000   1.3510000  55.2660000  20.6000000   3.2110000  55.7350000
  22.5470000  -0.5130000  55.0390000  21.2430000   1.3830000  54.2340000
  23.9300000  38.0280000  49.9660000  24.6660000  36.9780000  50.5350000
  23.5310000  39.0700000  50.8550000  23.5520000  38.0900000  48.5590000
  24.9680000  36.9840000  51.9110000  24.9960000  36.1640000  49.9150000
  23.7920000  39.0450000  52.2530000  22.7930000  40.1120000  50.2920000
  22.8210000  39.1580000  48.0590000  23.9810000  37.0340000  47.6890000
  24.5100000  37.9760000  52.7160000  25.5760000  36.1860000  52.3370000
  23.4400000  39.8130000  52.9230000  22.4830000  40.2010000  48.9620000
  22.4350000  40.9080000  50.9460000  22.4690000  39.1710000  46.6740000
  23.6220000  37.0160000  46.3290000  24.5900000  36.2390000  48.0820000
  24.7200000  37.9220000  53.7650000  21.9730000  41.0870000  48.5960000
  22.8680000  38.1270000  45.8510000  21.7270000  40.2340000  46.1330000
  23.9120000  36.1970000  45.6750000  22.4630000  38.1530000  44.4290000
  21.3660000  40.2740000  44.8170000  21.4260000  41.0370000  46.7820000
  21.7060000  39.2180000  43.9220000  22.8130000  37.1500000  43.5430000
  20.7960000  41.1190000  44.4530000  21.2900000  39.2980000  42.5820000
  22.3960000  37.2120000  42.1980000  23.4270000  36.3260000  43.8750000
  21.6500000  38.2750000  41.7520000  20.7080000  40.1350000  42.2210000
  22.6550000  36.4110000  41.5250000  21.3510000  38.3070000  40.7190000
  23.8210000   7.2580000  63.4810000  24.5580000   6.2080000  64.0500000
  23.4220000   8.3000000  64.3700000  23.4430000   7.3200000  62.0740000
  24.8600000   6.2140000  65.4250000  24.8870000   5.3940000  63.4290000
  23.6830000   8.2750000  65.7670000  22.6850000   9.3420000  63.8060000
  22.7130000   8.3880000  61.5740000  23.8730000   6.2640000  61.2030000
  24.4010000   7.2060000  66.2310000  25.4680000   5.4160000  65.8510000
  23.3320000   9.0430000  66.4380000  22.3750000   9.4310000  62.4760000
  22.3270000  10.1380000  64.4600000  22.3600000   8.4010000  60.1880000
  23.5140000   6.2460000  59.8440000  24.4820000   5.4690000  61.5970000
  24.6120000   7.1520000  67.2800000  21.8650000  10.3170000  62.1100000
  22.7590000   7.3570000  59.3650000  21.6180000   9.4640000  59.6480000
  23.8040000   5.4270000  59.1900000  22.3540000   7.3830000  57.9440000
  21.2570000   9.5040000  58.3320000  21.3170000  10.2670000  60.2970000
  21.5980000   8.4480000  57.4370000  22.7040000   6.3800000  57.0570000
  20.6870000  10.3490000  57.9680000  21.1810000   8.5280000  56.0960000
  22.2880000   6.4420000  55.7120000  23.3190000   5.5560000  57.3900000
  21.5420000   7.5050000  55.2660000  20.6000000   9.3650000  55.7350000
  22.5470000   5.6410000  55.0390000  21.2430000   7.5370000  54.2340000
  23.8210000  13.4120000  63.4810000  24.5580000  12.3620000  64.0500000
  23.4220000  14.4540000  64.3700000  23.4430000  13.4740000  62.0740000
  24.8600000  12.3680000  65.4250000  24.8870000  11.5480000  63.4290000
  23.6830000  14.4290000  65.7670000  22.6850000  15.4960000  63.8060000
  22.7130000  14.5420000  61.5740000  23.8730000  12.4180000  61.2030000
  24.4010000  13.3600000  66.2310000  25.4680000  11.5700000  65.8510000
  23.3320000  15.1970000  66.4380000  22.3750000  15.5850000  62.4760000
  22.3270000  16.2920000  64.4600000  22.3600000  14.5550000  60.1880000
  23.5140000  12.4000000  59.8440000  24.4820000  11.6230000  61.5970000
  24.6120000  13.3060000  67.2800000  21.8650000  16.4710000  62.1100000
  22.7590000  13.5110000  59.3650000  21.6180000  15.6180000  59.6480000
  23.8040000  11.5810000  59.1900000  22.3540000  13.5370000  57.9440000
  21.2570000  15.6580000  58.3320000  21.3170000  16.4210000  60.2970000
  21.5980000  14.6020000  57.4370000  22.7040000  12.5340000  57.0570000
  20.6870000  16.5030000  57.9680000  21.1810000  14.6820000  56.0960000
  22.2880000  12.5960000  55.7120000  23.3190000  11.7100000  57.3900000
  21.5420000  13.6590000  55.2660000  20.6000000  15.5190000  55.7350000
  22.5470000  11.7950000  55.0390000  21.2430000  13.6910000  54.2340000
  23.8210000  19.5660000  63.4810000  24.5580000  18.5160000  64.0500000
  23.4220000  20.6080000  64.3700000  23.4430000  19.6280000  62.0740000
  24.8600000  18.5220000  65.4250000  24.8870000  17.7020000  63.4290000
  23.6830000  20.5830000  65.7670000  22.6850000  21.6500000  63.8060000
  22.7130000  20.6960000  61.5740000  23.8730000  18.5720000  61.2030000
  24.4010000  19.5140000  66.2310000  25.4680000  17.7240000  65.8510000
  23.3320000  21.3510000  66.4380000  22.3750000  21.7390000  62.4760000
  22.3270000  22.4460000  64.4600000  22.3600000  20.7090000  60.1880000
  23.5140000  18.5540000  59.8440000  24.4820000  17.7770000  61.5970000
  24.6120000  19.4600000  67.2800000  21.8650000  22.6250000  62.1100000
  22.7590000  19.6650000  59.3650000  21.6180000  21.7720000  59.6480000
  23.8040000  17.7350000  59.1900000  22.3540000  19.6910000  57.9440000
  21.2570000  21.8120000  58.3320000  21.3170000  22.5750000  60.2970000
  21.5980000  20.7560000  57.4370000  22.7040000  18.6880000  57.0570000
  20.6870000  22.6570000  57.9680000  21.1810000  20.8360000  56.0960000
  22.2880000  18.7500000  55.7120000  23.3190000  17.8640000  57.3900000
  21.5420000  19.8130000  55.2660000  20.6000000  21.6730000  55.7350000
  22.5470000  17.9490000  55.0390000  21.2430000  19.8450000  54.2340000
  23.8210000  25.7200000  63.4810000  24.5580000  24.6700000  64.0500000
  23.4220000  26.7620000  64.3700000  23.4430000  25.7820000  62.0740000
  24.8600000  24.6760000  65.4250000  24.8870000  23.8560000  63.4290000
  23.6830000  26.7370000  65.7670000  22.6850000  27.8040000  63.8060000
  22.7130000  26.8500000  61.5740000  23.8730000  24.7260000  61.2030000
  24.4010000  25.6680000  66.2310000  25.4680000  23.8780000  65.8510000
  23.3320000  27.5050000  66.4380000  22.3750000  27.8930000  62.4760000
  22.3270000  28.6000000  64.4600000  22.3600000  26.8630000  60.1880000
  23.5140000  24.7080000  59.8440000  24.4820000  23.9310000  61.5970000
  24.6120000  25.6140000  67.2800000  21.8650000  28.7790000  62.1100000
  22.7590000  25.8190000  59.3650000  21.6180000  27.9260000  59.6480000
  23.8040000  23.8890000  59.1900000  22.3540000  25.8450000  57.9440000
  21.2570000  27.9660000  58.3320000  21.3170000  28.7290000  60.2970000
  21.5980000  26.9100000  57.4370000  22.7040000  24.8420000  57.0570000
  20.6870000  28.8110000  57.9680000  21.1810000  26.9900000  56.0960000
  22.2880000  24.9040000  55.7120000  23.3190000  24.0180000  57.3900000
  21.5420000  25.9670000  55.2660000  20.6000000  27.8270000  55.7350000
  22.5470000  24.1030000  55.0390000  21.2430000  25.9990000  54.2340000
  23.8210000  31.8740000  63.4810000  24.5580000  30.8240000  64.0500000
  23.4220000  32.9160000  64.3700000  23.4430000  31.9360000  62.0740000
  24.8600000  30.8300000  65.4250000  24.8870000  30.0100000  63.4290000
  23.6830000  32.8910000  65.7670000  22.6850000  33.9580000  63.8060000
  22.7130000  33.0040000  61.5740000  23.8730000  30.8800000  61.2030000
  24.4010000  31.8220000  66.2310000  25.4680000  30.0320000  65.8510000
  23.3320000  33.6590000  66.4380000  22.3750000  34.0470000  62.4760000
  22.3270000  34.7540000  64.4600000  22.3600000  33.0170000  60.1880000
  23.5140000  30.8620000  59.8440000  24.4820000  30.0850000  61.5970000
  24.6120000  31.7680000  67.2800000  21.8650000  34.9330000  62.1100000
  22.7590000  31.9730000  59.3650000  21.6180000  34.0800000  59.6480000
  23.8040000  30.0430000  59.1900000  22.3540000  31.9990000  57.9440000
  21.2570000  34.1200000  58.3320000  21.3170000  34.8830000  60.2970000
  21.5980000  33.0640000  57.4370000  22.7040000  30.9960000  57.0570000
  20.6870000  34.9650000  57.9680000  21.1810000  33.1440000  56.0960000
  22.2880000  31.0580000  55.7120000  23.3190000  30.1720000  57.3900000
  21.5420000  32.1210000  55.2660000  20.6000000  33.9810000  55.7350000
  22.5470000  30.2570000  55.0390000  21.2430000  32.1530000  54.2340000
  23.8210000  38.0280000  63.4810000  24.5580000  36.9780000  64.0500000
  23.4220000  39.0700000  64.3700000  23.4430000  38.0900000  62.0740000
  24.8600000  36.9840000  65.4250000  24.8870000  36.1640000  63.4290000
  23.6830000  39.0450000  65.7670000  22.6850000  40.1120000  63.8060000
  22.7130000  39.1580000  61.5740000  23.8730000  37.0340000  61.2030000
  24.4010000  37.9760000  66.2310000  25.4680000  36.1860000  65.8510000
  23.3320000  39.8130000  66.4380000  22.3750000  40.2010000  62.4760000
  22.3270000  40.9080000  64.4600000  22.3600000  39.1710000  60.1880000
  23.5140000  37.0160000  59.8440000  24.4820000  36.2390000  61.5970000
  24.6120000  37.9220000  67.2800000  21.8650000  41.0870000  62.1100000
  22.7590000  38.1270000  59.3650000  21.6180000  40.2340000  59.6480000
  23.8040000  36.1970000  59.1900000  22.3540000  38.1530000  57.9440000
  21.2570000  40.2740000  58.3320000  21.3170000  41.0370000  60.2970000
  21.5980000  39.2180000  57.4370000  22.7040000  37.1500000  57.0570000
  20.6870000  41.1190000  57.9680000  21.1810000  39.2980000  56.0960000
  22.2880000  37.2120000  55.7120000  23.3190000  36.3260000  57.3900000
  21.5420000  38.2750000  55.2660000  20.6000000  40.1350000  55.7350000
  22.5470000  36.4110000  55.0390000  21.2430000  38.3070000  54.2340000
  24.1470000   1.1040000  22.9370000  24.8830000   0.0540000  23.5060000
  23.7480000   2.1460000  23.8260000  23.7690000   1.1660000  21.5300000
  25.1850000   0.0600000  24.8820000  25.2130000  -0.7600000  22.8860000
  24.0090000   2.1210000  25.2240000  23.0100000   3.1880000  23.2630000
  23.0380000   2.2340000  21.0300000  24.1980000   0.1100000  20.6600000
  24.7270000   1.0520000  25.6870000  25.7930000  -0.7380000  25.3070000
  23.6570000   2.8890000  25.8940000  22.7000000   3.2770000  21.9330000
  22.6520000   3.9840000  23.9170000  22.6860000   2.2470000  19.6450000
  23.8390000   0.0920000  19.3000000  24.8070000  -0.6850000  21.0530000
  24.9370000   0.9980000  26.7360000  22.1900000   4.1630000  21.5670000
  23.0850000   1.2030000  18.8220000  21.9440000   3.3100000  19.1040000
  24.1290000  -0.7270000  18.6460000  22.6800000   1.2290000  17.4000000
  21.5830000   3.3500000  17.7880000  21.6430000   4.1130000  19.7530000
  21.9230000   2.2940000  16.8930000  23.0300000   0.2260000  16.5130000
  21.0130000   4.1950000  17.4240000  21.5070000   2.3740000  15.5530000
  22.6130000   0.2880000  15.1690000  23.6440000  -0.5980000  16.8460000
  21.8670000   1.3510000  14.7230000  20.9250000   3.2110000  15.1920000
  22.8720000  -0.5130000  14.4960000  21.5680000   1.3830000  13.6900000
  24.0380000   1.1040000  36.4510000  24.7750000   0.0540000  37.0200000
  23.6390000   2.1460000  37.3410000  23.6600000   1.1660000  35.0450000
  25.0770000   0.0600000  38.3960000  25.1050000  -0.7600000  36.4000000
  23.9000000   2.1210000  38.7380000  22.9020000   3.1880000  36.7770000
  22.9300000   2.2340000  34.5450000  24.0900000   0.1100000  34.1740000
  24.6180000   1.0520000  39.2020000  25.6850000  -0.7380000  38.8220000
  23.5490000   2.8890000  39.4080000  22.5920000   3.2770000  35.4470000
  22.5440000   3.9840000  37.4310000  22.5770000   2.2470000  33.1590000
  23.7310000   0.0920000  32.8150000  24.6990000  -0.6850000  34.5680000
  24.8290000   0.9980000  40.2500000  22.0820000   4.1630000  35.0810000
  22.9760000   1.2030000  32.3360000  21.8350000   3.3100000  32.6190000
  24.0210000  -0.7270000  32.1610000  22.5710000   1.2290000  30.9150000
  21.4740000   3.3500000  31.3020000  21.5340000   4.1130000  33.2670000
  21.8150000   2.2940000  30.4080000  22.9210000   0.2260000  30.0280000
  20.9040000   4.1950000  30.9390000  21.3980000   2.3740000  29.0670000
  22.5050000   0.2880000  28.6830000  23.5360000  -0.5980000  30.3600000
  21.7590000   1.3510000  28.2370000  20.8170000   3.2110000  28.7060000
  22.7640000  -0.5130000  28.0100000  21.4600000   1.3830000  27.2050000
  24.2550000   7.2580000   9.4220000  24.9920000   6.2080000   9.9910000
  23.8560000   8.3000000  10.3120000  23.8770000   7.3200000   8.0150000
  25.2940000   6.2140000  11.3670000  25.3220000   5.3940000   9.3710000
  24.1170000   8.2750000  11.7090000  23.1190000   9.3420000   9.7480000
  23.1470000   8.3880000   7.5150000  24.3070000   6.2640000   7.1450000
  24.8350000   7.2060000  12.1730000  25.9020000   5.4160000  11.7930000
  23.7660000   9.0430000  12.3790000  22.8090000   9.4310000   8.4180000
  22.7610000  10.1380000  10.4020000  22.7940000   8.4010000   6.1300000
  23.9480000   6.2460000   5.7860000  24.9160000   5.4690000   7.5380000
  25.0460000   7.1520000  13.2210000  22.2990000  10.3170000   8.0520000
  23.1930000   7.3570000   5.3070000  22.0520000   9.4640000   5.5900000
  24.2380000   5.4270000   5.1310000  22.7880000   7.3830000   3.8850000
  21.6910000   9.5040000   4.2730000  21.7510000  10.2670000   6.2380000
  22.0320000   8.4480000   3.3790000  23.1380000   6.3800000   2.9990000
  21.1210000  10.3490000   3.9100000  21.6150000   8.5280000   2.0380000
  22.7220000   6.4420000   1.6540000  23.7530000   5.5560000   3.3310000
  21.9760000   7.5050000   1.2080000  21.0340000   9.3650000   1.6770000
  22.9810000   5.6410000   0.9810000  21.6770000   7.5370000   0.1760000
  24.1470000   7.2580000  22.9370000  24.8830000   6.2080000  23.5060000
  23.7480000   8.3000000  23.8260000  23.7690000   7.3200000  21.5300000
  25.1850000   6.2140000  24.8820000  25.2130000   5.3940000  22.8860000
  24.0090000   8.2750000  25.2240000  23.0100000   9.3420000  23.2630000
  23.0380000   8.3880000  21.0300000  24.1980000   6.2640000  20.6600000
  24.7270000   7.2060000  25.6870000  25.7930000   5.4160000  25.3070000
  23.6570000   9.0430000  25.8940000  22.7000000   9.4310000  21.9330000
  22.6520000  10.1380000  23.9170000  22.6860000   8.4010000  19.6450000
  23.8390000   6.2460000  19.3000000  24.8070000   5.4690000  21.0530000
  24.9370000   7.1520000  26.7360000  22.1900000  10.3170000  21.5670000
  23.0850000   7.3570000  18.8220000  21.9440000   9.4640000  19.1040000
  24.1290000   5.4270000  18.6460000  22.6800000   7.3830000  17.4000000
  21.5830000   9.5040000  17.7880000  21.6430000  10.2670000  19.7530000
  21.9230000   8.4480000  16.8930000  23.0300000   6.3800000  16.5130000
  21.0130000  10.3490000  17.4240000  21.5070000   8.5280000  15.5530000
  22.6130000   6.4420000  15.1690000  23.6440000   5.5560000  16.8460000
  21.8670000   7.5050000  14.7230000  20.9250000   9.3650000  15.1920000
  22.8720000   5.6410000  14.4960000  21.5680000   7.5370000  13.6900000
  24.0380000   7.2580000  36.4510000  24.7750000   6.2080000  37.0200000
  23.6390000   8.3000000  37.3410000  23.6600000   7.3200000  35.0450000
  25.0770000   6.2140000  38.3960000  25.1050000   5.3940000  36.4000000
  23.9000000   8.2750000  38.7380000  22.9020000   9.3420000  36.7770000
  22.9300000   8.3880000  34.5450000  24.0900000   6.2640000  34.1740000
  24.6180000   7.2060000  39.2020000  25.6850000   5.4160000  38.8220000
  23.5490000   9.0430000  39.4080000  22.5920000   9.4310000  35.4470000
  22.5440000  10.1380000  37.4310000  22.5770000   8.4010000  33.1590000
  23.7310000   6.2460000  32.8150000  24.6990000   5.4690000  34.5680000
  24.8290000   7.1520000  40.2500000  22.0820000  10.3170000  35.0810000
  22.9760000   7.3570000  32.3360000  21.8350000   9.4640000  32.6190000
  24.0210000   5.4270000  32.1610000  22.5710000   7.3830000  30.9150000
  21.4740000   9.5040000  31.3020000  21.5340000  10.2670000  33.2670000
  21.8150000   8.4480000  30.4080000  22.9210000   6.3800000  30.0280000
  20.9040000  10.3490000  30.9390000  21.3980000   8.5280000  29.0670000
  22.5050000   6.4420000  28.6830000  23.5360000   5.5560000  30.3600000
  21.7590000   7.5050000  28.2370000  20.8170000   9.3650000  28.7060000
  22.7640000   5.6410000  28.0100000  21.4600000   7.5370000  27.2050000
  24.2550000  13.4120000   9.4220000  24.9920000  12.3620000   9.9910000
  23.8560000  14.4540000  10.3120000  23.8770000  13.4740000   8.0150000
  25.2940000  12.3680000  11.3670000  25.3220000  11.5480000   9.3710000
  24.1170000  14.4290000  11.7090000  23.1190000  15.4960000   9.7480000
  23.1470000  14.5420000   7.5150000  24.3070000  12.4180000   7.1450000
  24.8350000  13.3600000  12.1730000  25.9020000  11.5700000  11.7930000
  23.7660000  15.1970000  12.3790000  22.8090000  15.5850000   8.4180000
  22.7610000  16.2920000  10.4020000  22.7940000  14.5550000   6.1300000
  23.9480000  12.4000000   5.7860000  24.9160000  11.6230000   7.5380000
  25.0460000  13.3060000  13.2210000  22.2990000  16.4710000   8.0520000
  23.1930000  13.5110000   5.3070000  22.0520000  15.6180000   5.5900000
  24.2380000  11.5810000   5.1310000  22.7880000  13.5370000   3.8850000
  21.6910000  15.6580000   4.2730000  21.7510000  16.4210000   6.2380000
  22.0320000  14.6020000   3.3790000  23.1380000  12.5340000   2.9990000
  21.1210000  16.5030000   3.9100000  21.6150000  14.6820000   2.0380000
  22.7220000  12.5960000   1.6540000  23.7530000  11.7100000   3.3310000
  21.9760000  13.6590000   1.2080000  21.0340000  15.5190000   1.6770000
  22.9810000  11.7950000   0.9810000  21.6770000  13.6910000   0.1760000
  24.1470000  13.4120000  22.9370000  24.8830000  12.3620000  23.5060000
  23.7480000  14.4540000  23.8260000  23.7690000  13.4740000  21.5300000
  25.1850000  12.3680000  24.8820000  25.2130000  11.5480000  22.8860000
  24.0090000  14.4290000  25.2240000  23.0100000  15.4960000  23.2630000
  23.0380000  14.5420000  21.0300000  24.1980000  12.4180000  20.6600000
  24.7270000  13.3600000  25.6870000  25.7930000  11.5700000  25.3070000
  23.6570000  15.1970000  25.8940000  22.7000000  15.5850000  21.9330000
  22.6520000  16.2920000  23.9170000  22.6860000  14.5550000  19.6450000
  23.8390000  12.4000000  19.3000000  24.8070000  11.6230000  21.0530000
  24.9370000  13.3060000  26.7360000  22.1900000  16.4710000  21.5670000
  23.0850000  13.5110000  18.8220000  21.9440000  15.6180000  19.1040000
  24.1290000  11.5810000  18.6460000  22.6800000  13.5370000  17.4000000
  21.5830000  15.6580000  17.7880000  21.6430000  16.4210000  19.7530000
  21.9230000  14.6020000  16.8930000  23.0300000  12.5340000  16.5130000
  21.0130000  16.5030000  17.4240000  21.5070000  14.6820000  15.5530000
  22.6130000  12.5960000  15.1690000  23.6440000  11.7100000  16.8460000
  21.8670000  13.6590000  14.7230000  20.9250000  15.5190000  15.1920000
  22.8720000  11.7950000  14.4960000  21.5680000  13.6910000  13.6900000
  24.0380000  13.4120000  36.4510000  24.7750000  12.3620000  37.0200000
  23.6390000  14.4540000  37.3410000  23.6600000  13.4740000  35.0450000
  25.0770000  12.3680000  38.3960000  25.1050000  11.5480000  36.4000000
  23.9000000  14.4290000  38.7380000  22.9020000  15.4960000  36.7770000
  22.9300000  14.5420000  34.5450000  24.0900000  12.4180000  34.1740000
  24.6180000  13.3600000  39.2020000  25.6850000  11.5700000  38.8220000
  23.5490000  15.1970000  39.4080000  22.5920000  15.5850000  35.4470000
  22.5440000  16.2920000  37.4310000  22.5770000  14.5550000  33.1590000
  23.7310000  12.4000000  32.8150000  24.6990000  11.6230000  34.5680000
  24.8290000  13.3060000  40.2500000  22.0820000  16.4710000  35.0810000
  22.9760000  13.5110000  32.3360000  21.8350000  15.6180000  32.6190000
  24.0210000  11.5810000  32.1610000  22.5710000  13.5370000  30.9150000
  21.4740000  15.6580000  31.3020000  21.5340000  16.4210000  33.2670000
  21.8150000  14.6020000  30.4080000  22.9210000  12.5340000  30.0280000
  20.9040000  16.5030000  30.9390000  21.3980000  14.6820000  29.0670000
  22.5050000  12.5960000  28.6830000  23.5360000  11.7100000  30.3600000
  21.7590000  13.6590000  28.2370000  20.8170000  15.5190000  28.7060000
  22.7640000  11.7950000  28.0100000  21.4600000  13.6910000  27.2050000
  24.2550000  19.5660000   9.4220000  24.9920000  18.5160000   9.9910000
  23.8560000  20.6080000  10.3120000  23.8770000  19.6280000   8.0150000
  25.2940000  18.5220000  11.3670000  25.3220000  17.7020000   9.3710000
  24.1170000  20.5830000  11.7090000  23.1190000  21.6500000   9.7480000
  23.1470000  20.6960000   7.5150000  24.3070000  18.5720000   7.1450000
  24.8350000  19.5140000  12.1730000  25.9020000  17.7240000  11.7930000
  23.7660000  21.3510000  12.3790000  22.8090000  21.7390000   8.4180000
  22.7610000  22.4460000  10.4020000  22.7940000  20.7090000   6.1300000
  23.9480000  18.5540000   5.7860000  24.9160000  17.7770000   7.5380000
  25.0460000  19.4600000  13.2210000  22.2990000  22.6250000   8.0520000
  23.1930000  19.6650000   5.3070000  22.0520000  21.7720000   5.5900000
  24.2380000  17.7350000   5.1310000  22.7880000  19.6910000   3.8850000
  21.6910000  21.8120000   4.2730000  21.7510000  22.5750000   6.2380000
  22.0320000  20.7560000   3.3790000  23.1380000  18.6880000   2.9990000
  21.1210000  22.6570000   3.9100000  21.6150000  20.8360000   2.0380000
  22.7220000  18.7500000   1.6540000  23.7530000  17.8640000   3.3310000
  21.9760000  19.8130000   1.2080000  21.0340000  21.6730000   1.6770000
  22.9810000  17.9490000   0.9810000  21.6770000  19.8450000   0.1760000
  24.1470000  19.5660000  22.9370000  24.8830000  18.5160000  23.5060000
  23.7480000  20.6080000  23.8260000  23.7690000  19.6280000  21.5300000
  25.1850000  18.5220000  24.8820000  25.2130000  17.7020000  22.8860000
  24.0090000  20.5830000  25.2240000  23.0100000  21.6500000  23.2630000
  23.0380000  20.6960000  21.0300000  24.1980000  18.5720000  20.6600000
  24.7270000  19.5140000  25.6870000  25.7930000  17.7240000  25.3070000
  23.6570000  21.3510000  25.8940000  22.7000000  21.7390000  21.9330000
  22.6520000  22.4460000  23.9170000  22.6860000  20.7090000  19.6450000
  23.8390000  18.5540000  19.3000000  24.8070000  17.7770000  21.0530000
  24.9370000  19.4600000  26.7360000  22.1900000  22.6250000  21.5670000
  23.0850000  19.6650000  18.8220000  21.9440000  21.7720000  19.1040000
  24.1290000  17.7350000  18.6460000  22.6800000  19.6910000  17.4000000
  21.5830000  21.8120000  17.7880000  21.6430000  22.5750000  19.7530000
  21.9230000  20.7560000  16.8930000  23.0300000  18.6880000  16.5130000
  21.0130000  22.6570000  17.4240000  21.5070000  20.8360000  15.5530000
  22.6130000  18.7500000  15.1690000  23.6440000  17.8640000  16.8460000
  21.8670000  19.8130000  14.7230000  20.9250000  21.6730000  15.1920000
  22.8720000  17.9490000  14.4960000  21.5680000  19.8450000  13.6900000
  24.0380000  19.5660000  36.4510000  24.7750000  18.5160000  37.0200000
  23.6390000  20.6080000  37.3410000  23.6600000  19.6280000  35.0450000
  25.0770000  18.5220000  38.3960000  25.1050000  17.7020000  36.4000000
  23.9000000  20.5830000  38.7380000  22.9020000  21.6500000  36.7770000
  22.9300000  20.6960000  34.5450000  24.0900000  18.5720000  34.1740000
  24.6180000  19.5140000  39.2020000  25.6850000  17.7240000  38.8220000
  23.5490000  21.3510000  39.4080000  22.5920000  21.7390000  35.4470000
  22.5440000  22.4460000  37.4310000  22.5770000  20.7090000  33.1590000
  23.7310000  18.5540000  32.8150000  24.6990000  17.7770000  34.5680000
  24.8290000  19.4600000  40.2500000  22.0820000  22.6250000  35.0810000
  22.9760000  19.6650000  32.3360000  21.8350000  21.7720000  32.6190000
  24.0210000  17.7350000  32.1610000  22.5710000  19.6910000  30.9150000
  21.4740000  21.8120000  31.3020000  21.5340000  22.5750000  33.2670000
  21.8150000  20.7560000  30.4080000  22.9210000  18.6880000  30.0280000
  20.9040000  22.6570000  30.9390000  21.3980000  20.8360000  29.0670000
  22.5050000  18.7500000  28.6830000  23.5360000  17.8640000  30.3600000
  21.7590000  19.8130000  28.2370000  20.8170000  21.6730000  28.7060000
  22.7640000  17.9490000  28.0100000  21.4600000  19.8450000  27.2050000
  24.2550000  25.7200000   9.4220000  24.9920000  24.6700000   9.9910000
  23.8560000  26.7620000  10.3120000  23.8770000  25.7820000   8.0150000
  25.2940000  24.6760000  11.3670000  25.3220000  23.8560000   9.3710000
  24.1170000  26.7370000  11.7090000  23.1190000  27.8040000   9.7480000
  23.1470000  26.8500000   7.5150000  24.3070000  24.7260000   7.1450000
  24.8350000  25.6680000  12.1730000  25.9020000  23.8780000  11.7930000
  23.7660000  27.5050000  12.3790000  22.8090000  27.8930000   8.4180000
  22.7610000  28.6000000  10.4020000  22.7940000  26.8630000   6.1300000
  23.9480000  24.7080000   5.7860000  24.9160000  23.9310000   7.5380000
  25.0460000  25.6140000  13.2210000  22.2990000  28.7790000   8.0520000
  23.1930000  25.8190000   5.3070000  22.0520000  27.9260000   5.5900000
  24.2380000  23.8890000   5.1310000  22.7880000  25.8450000   3.8850000
  21.6910000  27.9660000   4.2730000  21.7510000  28.7290000   6.2380000
  22.0320000  26.9100000   3.3790000  23.1380000  24.8420000   2.9990000
  21.1210000  28.8110000   3.9100000  21.6150000  26.9900000   2.0380000
  22.7220000  24.9040000   1.6540000  23.7530000  24.0180000   3.3310000
  21.9760000  25.9670000   1.2080000  21.0340000  27.8270000   1.6770000
  22.9810000  24.1030000   0.9810000  21.6770000  25.9990000   0.1760000
  24.1470000  25.7200000  22.9370000  24.8830000  24.6700000  23.5060000
  23.7480000  26.7620000  23.8260000  23.7690000  25.7820000  21.5300000
  25.1850000  24.6760000  24.8820000  25.2130000  23.8560000  22.8860000
  24.0090000  26.7370000  25.2240000  23.0100000  27.8040000  23.2630000
  23.0380000  26.8500000  21.0300000  24.1980000  24.7260000  20.6600000
  24.7270000  25.6680000  25.6870000  25.7930000  23.8780000  25.3070000
  23.6570000  27.5050000  25.8940000  22.7000000  27.8930000  21.9330000
  22.6520000  28.6000000  23.9170000  22.6860000  26.8630000  19.6450000
  23.8390000  24.7080000  19.3000000  24.8070000  23.9310000  21.0530000
  24.9370000  25.6140000  26.7360000  22.1900000  28.7790000  21.5670000
  23.0850000  25.8190000  18.8220000  21.9440000  27.9260000  19.1040000
  24.1290000  23.8890000  18.6460000  22.6800000  25.8450000  17.4000000
  21.5830000  27.9660000  17.7880000  21.6430000  28.7290000  19.7530000
  21.9230000  26.9100000  16.8930000  23.0300000  24.8420000  16.5130000
  21.0130000  28.8110000  17.4240000  21.5070000  26.9900000  15.5530000
  22.6130000  24.9040000  15.1690000  23.6440000  24.0180000  16.8460000
  21.8670000  25.9670000  14.7230000  20.9250000  27.8270000  15.1920000
  22.8720000  24.1030000  14.4960000  21.5680000  25.9990000  13.6900000
  24.0380000  25.7200000  36.4510000  24.7750000  24.6700000  37.0200000
  23.6390000  26.7620000  37.3410000  23.6600000  25.7820000  35.0450000
  25.0770000  24.6760000  38.3960000  25.1050000  23.8560000  36.4000000
  23.9000000  26.7370000  38.7380000  22.9020000  27.8040000  36.7770000
  22.9300000  26.8500000  34.5450000  24.0900000  24.7260000  34.1740000
  24.6180000  25.6680000  39.2020000  25.6850000  23.8780000  38.8220000
  23.5490000  27.5050000  39.4080000  22.5920000  27.8930000  35.4470000
  22.5440000  28.6000000  37.4310000  22.5770000  26.8630000  33.1590000
  23.7310000  24.7080000  32.8150000  24.6990000  23.9310000  34.5680000
  24.8290000  25.6140000  40.2500000  22.0820000  28.7790000  35.0810000
  22.9760000  25.8190000  32.3360000  21.8350000  27.9260000  32.6190000
  24.0210000  23.8890000  32.1610000  22.5710000  25.8450000  30.9150000
  21.4740000  27.9660000  31.3020000  21.5340000  28.7290000  33.2670000
  21.8150000  26.9100000  30.4080000  22.9210000  24.8420000  30.0280000
  20.9040000  28.8110000  30.9390000  21.3980000  26.9900000  29.0670000
  22.5050000  24.9040000  28.6830000  23.5360000  24.0180000  30.3600000
  21.7590000  25.9670000  28.2370000  20.8170000  27.8270000  28.7060000
  22.7640000  24.1030000  28.0100000  21.4600000  25.9990000  27.2050000
  24.2550000  31.8740000   9.4220000  24.9920000  30.8240000   9.9910000
  23.8560000  32.9160000  10.3120000  23.8770000  31.9360000   8.0150000
  25.2940000  30.8300000  11.3670000  25.3220000  30.0100000   9.3710000
  24.1170000  32.8910000  11.7090000  23.1190000  33.9580000   9.7480000
  23.1470000  33.0040000   7.5150000  24.3070000  30.8800000   7.1450000
  24.8350000  31.8220000  12.1730000  25.9020000  30.0320000  11.7930000
  23.7660000  33.6590000  12.3790000  22.8090000  34.0470000   8.4180000
  22.7610000  34.7540000  10.4020000  22.7940000  33.0170000   6.1300000
  23.9480000  30.8620000   5.7860000  24.9160000  30.0850000   7.5380000
  25.0460000  31.7680000  13.2210000  22.2990000  34.9330000   8.0520000
  23.1930000  31.9730000   5.3070000  22.0520000  34.0800000   5.5900000
  24.2380000  30.0430000   5.1310000  22.7880000  31.9990000   3.8850000
  21.6910000  34.1200000   4.2730000  21.7510000  34.8830000   6.2380000
  22.0320000  33.0640000   3.3790000  23.1380000  30.9960000   2.9990000
  21.1210000  34.9650000   3.9100000  21.6150000  33.1440000   2.0380000
  22.7220000  31.0580000   1.6540000  23.7530000  30.1720000   3.3310000
  21.9760000  32.1210000   1.2080000  21.0340000  33.9810000   1.6770000
  22.9810000  30.2570000   0.9810000  21.6770000  32.1530000   0.1760000
  24.1470000  31.8740000  22.9370000  24.8830000  30.8240000  23.5060000
  23.7480000  32.9160000  23.8260000  23.7690000  31.9360000  21.5300000
  25.1850000  30.8300000  24.8820000  25.2130000  30.0100000  22.8860000
  24.0090000  32.8910000  25.2240000  23.0100000  33.9580000  23.2630000
  23.0380000  33.0040000  21.0300000  24.1980000  30.8800000  20.6600000
  24.7270000  31.8220000  25.6870000  25.7930000  30.0320000  25.3070000
  23.6570000  33.6590000  25.8940000  22.7000000  34.0470000  21.9330000
  22.6520000  34.7540000  23.9170000  22.6860000  33.0170000  19.6450000
  23.8390000  30.8620000  19.3000000  24.8070000  30.0850000  21.0530000
  24.9370000  31.7680000  26.7360000  22.1900000  34.9330000  21.5670000
  23.0850000  31.9730000  18.8220000  21.9440000  34.0800000  19.1040000
  24.1290000  30.0430000  18.6460000  22.6800000  31.9990000  17.4000000
  21.5830000  34.1200000  17.7880000  21.6430000  34.8830000  19.7530000
  21.9230000  33.0640000  16.8930000  23.0300000  30.9960000  16.5130000
  21.0130000  34.9650000  17.4240000  21.5070000  33.1440000  15.5530000
  22.6130000  31.0580000  15.1690000  23.6440000  30.1720000  16.8460000
  21.8670000  32.1210000  14.7230000  20.9250000  33.9810000  15.1920000
  22.8720000  30.2570000  14.4960000  21.5680000  32.1530000  13.6900000
  24.0380000  31.8740000  36.4510000  24.7750000  30.8240000  37.0200000
  23.6390000  32.9160000  37.3410000  23.6600000  31.9360000  35.0450000
  25.0770000  30.8300000  38.3960000  25.1050000  30.0100000  36.4000000
  23.9000000  32.8910000  38.7380000  22.9020000  33.9580000  36.7770000
  22.9300000  33.0040000  34.5450000  24.0900000  30.8800000  34.1740000
  24.6180000  31.8220000  39.2020000  25.6850000  30.0320000  38.8220000
  23.5490000  33.6590000  39.4080000  22.5920000  34.0470000  35.4470000
  22.5440000  34.7540000  37.4310000  22.5770000  33.0170000  33.1590000
  23.7310000  30.8620000  32.8150000  24.6990000  30.0850000  34.5680000
  24.8290000  31.7680000  40.2500000  22.0820000  34.9330000  35.0810000
  22.9760000  31.9730000  32.3360000  21.8350000  34.0800000  32.6190000
  24.0210000  30.0430000  32.1610000  22.5710000  31.9990000  30.9150000
  21.4740000  34.1200000  31.3020000  21.5340000  34.8830000  33.2670000
  21.8150000  33.0640000  30.4080000  22.9210000  30.9960000  30.0280000
  20.9040000  34.9650000  30.9390000  21.3980000  33.1440000  29.0670000
  22.5050000  31.0580000  28.6830000  23.5360000  30.1720000  30.3600000
  21.7590000  32.1210000  28.2370000  20.8170000  33.9810000  28.7060000
  22.7640000  30.2570000  28.0100000  21.4600000  32.1530000  27.2050000
  24.2550000  38.0280000   9.4220000  24.9920000  36.9780000   9.9910000
  23.8560000  39.0700000  10.3120000  23.8770000  38.0900000   8.0150000
  25.2940000  36.9840000  11.3670000  25.3220000  36.1640000   9.3710000
  24.1170000  39.0450000  11.7090000  23.1190000  40.1120000   9.7480000
  23.1470000  39.1580000   7.5150000  24.3070000  37.0340000   7.1450000
  24.8350000  37.9760000  12.1730000  25.9020000  36.1860000  11.7930000
  23.7660000  39.8130000  12.3790000  22.8090000  40.2010000   8.4180000
  22.7610000  40.9080000  10.4020000  22.7940000  39.1710000   6.1300000
  23.9480000  37.0160000   5.7860000  24.9160000  36.2390000   7.5380000
  25.0460000  37.9220000  13.2210000  22.2990000  41.0870000   8.0520000
  23.1930000  38.1270000   5.3070000  22.0520000  40.2340000   5.5900000
  24.2380000  36.1970000   5.1310000  22.7880000  38.1530000   3.8850000
  21.6910000  40.2740000   4.2730000  21.7510000  41.0370000   6.2380000
  22.0320000  39.2180000   3.3790000  23.1380000  37.1500000   2.9990000
  21.1210000  41.1190000   3.9100000  21.6150000  39.2980000   2.0380000
  22.7220000  37.2120000   1.6540000  23.7530000  36.3260000   3.3310000
  21.9760000  38.2750000   1.2080000  21.0340000  40.1350000   1.6770000
  22.9810000  36.4110000   0.9810000  21.6770000  38.3070000   0.1760000
  24.1470000  38.0280000  22.9370000  24.8830000  36.9780000  23.5060000
  23.7480000  39.0700000  23.8260000  23.7690000  38.0900000  21.5300000
  25.1850000  36.9840000  24.8820000  25.2130000  36.1640000  22.8860000
  24.0090000  39.0450000  25.2240000  23.0100000  40.1120000  23.2630000
  23.0380000  39.1580000  21.0300000  24.1980000  37.0340000  20.6600000
  24.7270000  37.9760000  25.6870000  25.7930000  36.1860000  25.3070000
  23.6570000  39.8130000  25.8940000  22.7000000  40.2010000  21.9330000
  22.6520000  40.9080000  23.9170000  22.6860000  39.1710000  19.6450000
  23.8390000  37.0160000  19.3000000  24.8070000  36.2390000  21.0530000
  24.9370000  37.9220000  26.7360000  22.1900000  41.0870000  21.5670000
  23.0850000  38.1270000  18.8220000  21.9440000  40.2340000  19.1040000
  24.1290000  36.1970000  18.6460000  22.6800000  38.1530000  17.4000000
  21.5830000  40.2740000  17.7880000  21.6430000  41.0370000  19.7530000
  21.9230000  39.2180000  16.8930000  23.0300000  37.1500000  16.5130000
  21.0130000  41.1190000  17.4240000  21.5070000  39.2980000  15.5530000
  22.6130000  37.2120000  15.1690000  23.6440000  36.3260000  16.8460000
  21.8670000  38.2750000  14.7230000  20.9250000  40.1350000  15.1920000
  22.8720000  36.4110000  14.4960000  21.5680000  38.3070000  13.6900000
  24.0380000  38.0280000  36.4510000  24.7750000  36.9780000  37.0200000
  23.6390000  39.0700000  37.3410000  23.6600000  38.0900000  35.0450000
  25.0770000  36.9840000  38.3960000  25.1050000  36.1640000  36.4000000
  23.9000000  39.0450000  38.7380000  22.9020000  40.1120000  36.7770000
  22.9300000  39.1580000  34.5450000  24.0900000  37.0340000  34.1740000
  24.6180000  37.9760000  39.2020000  25.6850000  36.1860000  38.8220000
  23.5490000  39.8130000  39.4080000  22.5920000  40.2010000  35.4470000
  22.5440000  40.9080000  37.4310000  22.5770000  39.1710000  33.1590000
  23.7310000  37.0160000  32.8150000  24.6990000  36.2390000  34.5680000
  24.8290000  37.9220000  40.2500000  22.0820000  41.0870000  35.0810000
  22.9760000  38.1270000  32.3360000  21.8350000  40.2340000  32.6190000
  24.0210000  36.1970000  32.1610000  22.5710000  38.1530000  30.9150000
  21.4740000  40.2740000  31.3020000  21.5340000  41.0370000  33.2670000
  21.8150000  39.2180000  30.4080000  22.9210000  37.1500000  30.0280000
  20.9040000  41.1190000  30.9390000  21.3980000  39.2980000  29.0670000
  22.5050000  37.2120000  28.6830000  23.5360000  36.3260000  30.3600000
  21.7590000  38.2750000  28.2370000  20.8170000  40.1350000  28.7060000
  22.7640000  36.4110000  28.0100000  21.4600000  38.3070000  27.2050000
  26.4080000  10.3350000  17.6070000  25.6710000   9.2850000  17.0380000
  26.8070000  11.3770000  16.7180000  26.7860000  10.3970000  19.0140000
  25.3690000   9.2910000  15.6620000  25.3410000   8.4710000  17.6580000
  26.5460000  11.3520000  15.3200000  27.5440000  12.4190000  17.2810000
  27.5160000  11.4650000  19.5140000  26.3560000   9.3410000  19.8840000
  25.8280000  10.2830000  14.8570000  24.7610000   8.4930000  15.2360000
  26.8970000  12.1200000  14.6500000  27.8540000  12.5080000  18.6110000
  27.9020000  13.2150000  16.6270000  27.8690000  11.4780000  20.8990000
  26.7150000   9.3230000  21.2440000  25.7470000   8.5460000  19.4910000
  25.6170000  10.2290000  13.8080000  28.3640000  13.3940000  18.9770000
  27.4700000  10.4340000  21.7220000  28.6110000  12.5410000  21.4400000
  26.4250000   8.5040000  21.8980000  27.8750000  10.4600000  23.1440000
  28.9720000  12.5810000  22.7560000  28.9120000  13.3440000  20.7910000
  28.6310000  11.5250000  23.6500000  27.5250000   9.4570000  24.0300000
  29.5420000  13.4260000  23.1190000  29.0480000  11.6050000  24.9910000
  27.9410000   9.5190000  25.3750000  26.9100000   8.6330000  23.6980000
  28.6870000  10.5820000  25.8210000  29.6290000  12.4420000  25.3520000
  27.6820000   8.7180000  26.0480000  28.9860000  10.6140000  26.8530000
  26.1910000  10.3350000  44.6360000  25.4540000   9.2850000  44.0670000
  26.5900000  11.3770000  43.7470000  26.5690000  10.3970000  46.0430000
  25.1520000   9.2910000  42.6910000  25.1240000   8.4710000  44.6870000
  26.3290000  11.3520000  42.3490000  27.3270000  12.4190000  44.3100000
  27.2990000  11.4650000  46.5430000  26.1390000   9.3410000  46.9130000
  25.6110000  10.2830000  41.8860000  24.5440000   8.4930000  42.2650000
  26.6800000  12.1200000  41.6790000  27.6370000  12.5080000  45.6400000
  27.6850000  13.2150000  43.6560000  27.6520000  11.4780000  47.9280000
  26.4980000   9.3230000  48.2730000  25.5300000   8.5460000  46.5200000
  25.4000000  10.2290000  40.8370000  28.1470000  13.3940000  46.0060000
  27.2530000  10.4340000  48.7510000  28.3940000  12.5410000  48.4690000
  26.2080000   8.5040000  48.9270000  27.6570000  10.4600000  50.1730000
  28.7550000  12.5810000  49.7850000  28.6950000  13.3440000  47.8200000
  28.4140000  11.5250000  50.6800000  27.3080000   9.4570000  51.0590000
  29.3250000  13.4260000  50.1480000  28.8310000  11.6050000  52.0200000
  27.7240000   9.5190000  52.4040000  26.6930000   8.6330000  50.7270000
  28.4700000  10.5820000  52.8500000  29.4120000  12.4420000  52.3810000
  27.4650000   8.7180000  53.0770000  28.7690000  10.6140000  53.8830000
  26.0820000  10.3350000  58.1500000  25.3460000   9.2850000  57.5820000
  26.4810000  11.3770000  57.2610000  26.4600000  10.3970000  59.5570000
  25.0440000   9.2910000  56.2060000  25.0160000   8.4710000  58.2020000
  26.2200000  11.3520000  55.8640000  27.2190000  12.4190000  57.8250000
  27.1910000  11.4650000  60.0570000  26.0310000   9.3410000  60.4280000
  25.5020000  10.2830000  55.4000000  24.4360000   8.4930000  55.7800000
  26.5720000  12.1200000  55.1930000  27.5290000  12.5080000  59.1550000
  27.5770000  13.2150000  57.1710000  27.5430000  11.4780000  61.4430000
  26.3900000   9.3230000  61.7870000  25.4220000   8.5460000  60.0340000
  25.2920000  10.2290000  54.3520000  28.0390000  13.3940000  59.5210000
  27.1440000  10.4340000  62.2660000  28.2850000  12.5410000  61.9830000
  26.1000000   8.5040000  62.4410000  27.5490000  10.4600000  63.6870000
  28.6460000  12.5810000  63.3000000  28.5860000  13.3440000  61.3340000
  28.3060000  11.5250000  64.1940000  27.1990000   9.4570000  64.5740000
  29.2160000  13.4260000  63.6630000  28.7220000  11.6050000  65.5350000
  27.6160000   9.5190000  65.9190000  26.5850000   8.6330000  64.2410000
  28.3620000  10.5820000  66.3650000  29.3040000  12.4420000  65.8960000
  27.3570000   8.7180000  66.5920000  28.6610000  10.6140000  67.3970000
  26.1910000   4.1810000  44.6360000  25.4540000   3.1310000  44.0670000
  26.5900000   5.2230000  43.7470000  26.5690000   4.2430000  46.0430000
  25.1520000   3.1370000  42.6910000  25.1240000   2.3170000  44.6870000
  26.3290000   5.1980000  42.3490000  27.3270000   6.2650000  44.3100000
  27.2990000   5.3110000  46.5430000  26.1390000   3.1870000  46.9130000
  25.6110000   4.1290000  41.8860000  24.5440000   2.3390000  42.2650000
  26.6800000   5.9660000  41.6790000  27.6370000   6.3540000  45.6400000
  27.6850000   7.0610000  43.6560000  27.6520000   5.3240000  47.9280000
  26.4980000   3.1690000  48.2730000  25.5300000   2.3920000  46.5200000
  25.4000000   4.0750000  40.8370000  28.1470000   7.2400000  46.0060000
  27.2530000   4.2800000  48.7510000  28.3940000   6.3870000  48.4690000
  26.2080000   2.3500000  48.9270000  27.6570000   4.3060000  50.1730000
  28.7550000   6.4270000  49.7850000  28.6950000   7.1900000  47.8200000
  28.4140000   5.3710000  50.6800000  27.3080000   3.3030000  51.0590000
  29.3250000   7.2720000  50.1480000  28.8310000   5.4510000  52.0200000
  27.7240000   3.3650000  52.4040000  26.6930000   2.4790000  50.7270000
  28.4700000   4.4280000  52.8500000  29.4120000   6.2880000  52.3810000
  27.4650000   2.5640000  53.0770000  28.7690000   4.4600000  53.8830000
  26.4080000  16.4890000  17.6070000  25.6710000  15.4390000  17.0380000
  26.8070000  17.5310000  16.7180000  26.7860000  16.5510000  19.0140000
  25.3690000  15.4450000  15.6620000  25.3410000  14.6250000  17.6580000
  26.5460000  17.5060000  15.3200000  27.5440000  18.5730000  17.2810000
  27.5160000  17.6190000  19.5140000  26.3560000  15.4950000  19.8840000
  25.8280000  16.4370000  14.8570000  24.7610000  14.6470000  15.2360000
  26.8970000  18.2740000  14.6500000  27.8540000  18.6620000  18.6110000
  27.9020000  19.3690000  16.6270000  27.8690000  17.6320000  20.8990000
  26.7150000  15.4770000  21.2440000  25.7470000  14.7000000  19.4910000
  25.6170000  16.3830000  13.8080000  28.3640000  19.5480000  18.9770000
  27.4700000  16.5880000  21.7220000  28.6110000  18.6950000  21.4400000
  26.4250000  14.6580000  21.8980000  27.8750000  16.6140000  23.1440000
  28.9720000  18.7350000  22.7560000  28.9120000  19.4980000  20.7910000
  28.6310000  17.6790000  23.6500000  27.5250000  15.6110000  24.0300000
  29.5420000  19.5800000  23.1190000  29.0480000  17.7590000  24.9910000
  27.9410000  15.6730000  25.3750000  26.9100000  14.7870000  23.6980000
  28.6870000  16.7360000  25.8210000  29.6290000  18.5960000  25.3520000
  27.6820000  14.8720000  26.0480000  28.9860000  16.7680000  26.8530000
  26.1910000  16.4890000  44.6360000  25.4540000  15.4390000  44.0670000
  26.5900000  17.5310000  43.7470000  26.5690000  16.5510000  46.0430000
  25.1520000  15.4450000  42.6910000  25.1240000  14.6250000  44.6870000
  26.3290000  17.5060000  42.3490000  27.3270000  18.5730000  44.3100000
  27.2990000  17.6190000  46.5430000  26.1390000  15.4950000  46.9130000
  25.6110000  16.4370000  41.8860000  24.5440000  14.6470000  42.2650000
  26.6800000  18.2740000  41.6790000  27.6370000  18.6620000  45.6400000
  27.6850000  19.3690000  43.6560000  27.6520000  17.6320000  47.9280000
  26.4980000  15.4770000  48.2730000  25.5300000  14.7000000  46.5200000
  25.4000000  16.3830000  40.8370000  28.1470000  19.5480000  46.0060000
  27.2530000  16.5880000  48.7510000  28.3940000  18.6950000  48.4690000
  26.2080000  14.6580000  48.9270000  27.6570000  16.6140000  50.1730000
  28.7550000  18.7350000  49.7850000  28.6950000  19.4980000  47.8200000
  28.4140000  17.6790000  50.6800000  27.3080000  15.6110000  51.0590000
  29.3250000  19.5800000  50.1480000  28.8310000  17.7590000  52.0200000
  27.7240000  15.6730000  52.4040000  26.6930000  14.7870000  50.7270000
  28.4700000  16.7360000  52.8500000  29.4120000  18.5960000  52.3810000
  27.4650000  14.8720000  53.0770000  28.7690000  16.7680000  53.8830000
  26.0820000  16.4890000  58.1500000  25.3460000  15.4390000  57.5820000
  26.4810000  17.5310000  57.2610000  26.4600000  16.5510000  59.5570000
  25.0440000  15.4450000  56.2060000  25.0160000  14.6250000  58.2020000
  26.2200000  17.5060000  55.8640000  27.2190000  18.5730000  57.8250000
  27.1910000  17.6190000  60.0570000  26.0310000  15.4950000  60.4280000
  25.5020000  16.4370000  55.4000000  24.4360000  14.6470000  55.7800000
  26.5720000  18.2740000  55.1930000  27.5290000  18.6620000  59.1550000
  27.5770000  19.3690000  57.1710000  27.5430000  17.6320000  61.4430000
  26.3900000  15.4770000  61.7870000  25.4220000  14.7000000  60.0340000
  25.2920000  16.3830000  54.3520000  28.0390000  19.5480000  59.5210000
  27.1440000  16.5880000  62.2660000  28.2850000  18.6950000  61.9830000
  26.1000000  14.6580000  62.4410000  27.5490000  16.6140000  63.6870000
  28.6460000  18.7350000  63.3000000  28.5860000  19.4980000  61.3340000
  28.3060000  17.6790000  64.1940000  27.1990000  15.6110000  64.5740000
  29.2160000  19.5800000  63.6630000  28.7220000  17.7590000  65.5350000
  27.6160000  15.6730000  65.9190000  26.5850000  14.7870000  64.2410000
  28.3620000  16.7360000  66.3650000  29.3040000  18.5960000  65.8960000
  27.3570000  14.8720000  66.5920000  28.6610000  16.7680000  67.3970000
  26.4080000  22.6430000  17.6070000  25.6710000  21.5930000  17.0380000
  26.8070000  23.6850000  16.7180000  26.7860000  22.7050000  19.0140000
  25.3690000  21.5990000  15.6620000  25.3410000  20.7790000  17.6580000
  26.5460000  23.6600000  15.3200000  27.5440000  24.7270000  17.2810000
  27.5160000  23.7730000  19.5140000  26.3560000  21.6490000  19.8840000
  25.8280000  22.5910000  14.8570000  24.7610000  20.8010000  15.2360000
  26.8970000  24.4280000  14.6500000  27.8540000  24.8160000  18.6110000
  27.9020000  25.5230000  16.6270000  27.8690000  23.7860000  20.8990000
  26.7150000  21.6310000  21.2440000  25.7470000  20.8540000  19.4910000
  25.6170000  22.5370000  13.8080000  28.3640000  25.7020000  18.9770000
  27.4700000  22.7420000  21.7220000  28.6110000  24.8490000  21.4400000
  26.4250000  20.8120000  21.8980000  27.8750000  22.7680000  23.1440000
  28.9720000  24.8890000  22.7560000  28.9120000  25.6520000  20.7910000
  28.6310000  23.8330000  23.6500000  27.5250000  21.7650000  24.0300000
  29.5420000  25.7340000  23.1190000  29.0480000  23.9130000  24.9910000
  27.9410000  21.8270000  25.3750000  26.9100000  20.9410000  23.6980000
  28.6870000  22.8900000  25.8210000  29.6290000  24.7500000  25.3520000
  27.6820000  21.0260000  26.0480000  28.9860000  22.9220000  26.8530000
  26.1910000  22.6430000  44.6360000  25.4540000  21.5930000  44.0670000
  26.5900000  23.6850000  43.7470000  26.5690000  22.7050000  46.0430000
  25.1520000  21.5990000  42.6910000  25.1240000  20.7790000  44.6870000
  26.3290000  23.6600000  42.3490000  27.3270000  24.7270000  44.3100000
  27.2990000  23.7730000  46.5430000  26.1390000  21.6490000  46.9130000
  25.6110000  22.5910000  41.8860000  24.5440000  20.8010000  42.2650000
  26.6800000  24.4280000  41.6790000  27.6370000  24.8160000  45.6400000
  27.6850000  25.5230000  43.6560000  27.6520000  23.7860000  47.9280000
  26.4980000  21.6310000  48.2730000  25.5300000  20.8540000  46.5200000
  25.4000000  22.5370000  40.8370000  28.1470000  25.7020000  46.0060000
  27.2530000  22.7420000  48.7510000  28.3940000  24.8490000  48.4690000
  26.2080000  20.8120000  48.9270000  27.6570000  22.7680000  50.1730000
  28.7550000  24.8890000  49.7850000  28.6950000  25.6520000  47.8200000
  28.4140000  23.8330000  50.6800000  27.3080000  21.7650000  51.0590000
  29.3250000  25.7340000  50.1480000  28.8310000  23.9130000  52.0200000
  27.7240000  21.8270000  52.4040000  26.6930000  20.9410000  50.7270000
  28.4700000  22.8900000  52.8500000  29.4120000  24.7500000  52.3810000
  27.4650000  21.0260000  53.0770000  28.7690000  22.9220000  53.8830000
  26.0820000  22.6430000  58.1500000  25.3460000  21.5930000  57.5820000
  26.4810000  23.6850000  57.2610000  26.4600000  22.7050000  59.5570000
  25.0440000  21.5990000  56.2060000  25.0160000  20.7790000  58.2020000
  26.2200000  23.6600000  55.8640000  27.2190000  24.7270000  57.8250000
  27.1910000  23.7730000  60.0570000  26.0310000  21.6490000  60.4280000
  25.5020000  22.5910000  55.4000000  24.4360000  20.8010000  55.7800000
  26.5720000  24.4280000  55.1930000  27.5290000  24.8160000  59.1550000
  27.5770000  25.5230000  57.1710000  27.5430000  23.7860000  61.4430000
  26.3900000  21.6310000  61.7870000  25.4220000  20.8540000  60.0340000
  25.2920000  22.5370000  54.3520000  28.0390000  25.7020000  59.5210000
  27.1440000  22.7420000  62.2660000  28.2850000  24.8490000  61.9830000
  26.1000000  20.8120000  62.4410000  27.5490000  22.7680000  63.6870000
  28.6460000  24.8890000  63.3000000  28.5860000  25.6520000  61.3340000
  28.3060000  23.8330000  64.1940000  27.1990000  21.7650000  64.5740000
  29.2160000  25.7340000  63.6630000  28.7220000  23.9130000  65.5350000
  27.6160000  21.8270000  65.9190000  26.5850000  20.9410000  64.2410000
  28.3620000  22.8900000  66.3650000  29.3040000  24.7500000  65.8960000
  27.3570000  21.0260000  66.5920000  28.6610000  22.9220000  67.3970000
  26.4080000  28.7970000  17.6070000  25.6710000  27.7470000  17.0380000
  26.8070000  29.8390000  16.7180000  26.7860000  28.8590000  19.0140000
  25.3690000  27.7530000  15.6620000  25.3410000  26.9330000  17.6580000
  26.5460000  29.8140000  15.3200000  27.5440000  30.8810000  17.2810000
  27.5160000  29.9270000  19.5140000  26.3560000  27.8030000  19.8840000
  25.8280000  28.7450000  14.8570000  24.7610000  26.9550000  15.2360000
  26.8970000  30.5820000  14.6500000  27.8540000  30.9700000  18.6110000
  27.9020000  31.6770000  16.6270000  27.8690000  29.9400000  20.8990000
  26.7150000  27.7850000  21.2440000  25.7470000  27.0080000  19.4910000
  25.6170000  28.6910000  13.8080000  28.3640000  31.8560000  18.9770000
  27.4700000  28.8960000  21.7220000  28.6110000  31.0030000  21.4400000
  26.4250000  26.9660000  21.8980000  27.8750000  28.9220000  23.1440000
  28.9720000  31.0430000  22.7560000  28.9120000  31.8060000  20.7910000
  28.6310000  29.9870000  23.6500000  27.5250000  27.9190000  24.0300000
  29.5420000  31.8880000  23.1190000  29.0480000  30.0670000  24.9910000
  27.9410000  27.9810000  25.3750000  26.9100000  27.0950000  23.6980000
  28.6870000  29.0440000  25.8210000  29.6290000  30.9040000  25.3520000
  27.6820000  27.1800000  26.0480000  28.9860000  29.0760000  26.8530000
  26.1910000  28.7970000  44.6360000  25.4540000  27.7470000  44.0670000
  26.5900000  29.8390000  43.7470000  26.5690000  28.8590000  46.0430000
  25.1520000  27.7530000  42.6910000  25.1240000  26.9330000  44.6870000
  26.3290000  29.8140000  42.3490000  27.3270000  30.8810000  44.3100000
  27.2990000  29.9270000  46.5430000  26.1390000  27.8030000  46.9130000
  25.6110000  28.7450000  41.8860000  24.5440000  26.9550000  42.2650000
  26.6800000  30.5820000  41.6790000  27.6370000  30.9700000  45.6400000
  27.6850000  31.6770000  43.6560000  27.6520000  29.9400000  47.9280000
  26.4980000  27.7850000  48.2730000  25.5300000  27.0080000  46.5200000
  25.4000000  28.6910000  40.8370000  28.1470000  31.8560000  46.0060000
  27.2530000  28.8960000  48.7510000  28.3940000  31.0030000  48.4690000
  26.2080000  26.9660000  48.9270000  27.6570000  28.9220000  50.1730000
  28.7550000  31.0430000  49.7850000  28.6950000  31.8060000  47.8200000
  28.4140000  29.9870000  50.6800000  27.3080000  27.9190000  51.0590000
  29.3250000  31.8880000  50.1480000  28.8310000  30.0670000  52.0200000
  27.7240000  27.9810000  52.4040000  26.6930000  27.0950000  50.7270000
  28.4700000  29.0440000  52.8500000  29.4120000  30.9040000  52.3810000
  27.4650000  27.1800000  53.0770000  28.7690000  29.0760000  53.8830000
  26.0820000  28.7970000  58.1500000  25.3460000  27.7470000  57.5820000
  26.4810000  29.8390000  57.2610000  26.4600000  28.8590000  59.5570000
  25.0440000  27.7530000  56.2060000  25.0160000  26.9330000  58.2020000
  26.2200000  29.8140000  55.8640000  27.2190000  30.8810000  57.8250000
  27.1910000  29.9270000  60.0570000  26.0310000  27.8030000  60.4280000
  25.5020000  28.7450000  55.4000000  24.4360000  26.9550000  55.7800000
  26.5720000  30.5820000  55.1930000  27.5290000  30.9700000  59.1550000
  27.5770000  31.6770000  57.1710000  27.5430000  29.9400000  61.4430000
  26.3900000  27.7850000  61.7870000  25.4220000  27.0080000  60.0340000
  25.2920000  28.6910000  54.3520000  28.0390000  31.8560000  59.5210000
  27.1440000  28.8960000  62.2660000  28.2850000  31.0030000  61.9830000
  26.1000000  26.9660000  62.4410000  27.5490000  28.9220000  63.6870000
  28.6460000  31.0430000  63.3000000  28.5860000  31.8060000  61.3340000
  28.3060000  29.9870000  64.1940000  27.1990000  27.9190000  64.5740000
  29.2160000  31.8880000  63.6630000  28.7220000  30.0670000  65.5350000
  27.6160000  27.9810000  65.9190000  26.5850000  27.0950000  64.2410000
  28.3620000  29.0440000  66.3650000  29.3040000  30.9040000  65.8960000
  27.3570000  27.1800000  66.5920000  28.6610000  29.0760000  67.3970000
  26.4080000  34.9510000  17.6070000  25.6710000  33.9010000  17.0380000
  26.8070000  35.9930000  16.7180000  26.7860000  35.0130000  19.0140000
  25.3690000  33.9070000  15.6620000  25.3410000  33.0870000  17.6580000
  26.5460000  35.9680000  15.3200000  27.5440000  37.0350000  17.2810000
  27.5160000  36.0810000  19.5140000  26.3560000  33.9570000  19.8840000
  25.8280000  34.8990000  14.8570000  24.7610000  33.1090000  15.2360000
  26.8970000  36.7360000  14.6500000  27.8540000  37.1240000  18.6110000
  27.9020000  37.8310000  16.6270000  27.8690000  36.0940000  20.8990000
  26.7150000  33.9390000  21.2440000  25.7470000  33.1620000  19.4910000
  25.6170000  34.8450000  13.8080000  28.3640000  38.0100000  18.9770000
  27.4700000  35.0500000  21.7220000  28.6110000  37.1570000  21.4400000
  26.4250000  33.1200000  21.8980000  27.8750000  35.0760000  23.1440000
  28.9720000  37.1970000  22.7560000  28.9120000  37.9600000  20.7910000
  28.6310000  36.1410000  23.6500000  27.5250000  34.0730000  24.0300000
  29.5420000  38.0420000  23.1190000  29.0480000  36.2210000  24.9910000
  27.9410000  34.1350000  25.3750000  26.9100000  33.2490000  23.6980000
  28.6870000  35.1980000  25.8210000  29.6290000  37.0580000  25.3520000
  27.6820000  33.3340000  26.0480000  28.9860000  35.2300000  26.8530000
  26.1910000  34.9510000  44.6360000  25.4540000  33.9010000  44.0670000
  26.5900000  35.9930000  43.7470000  26.5690000  35.0130000  46.0430000
  25.1520000  33.9070000  42.6910000  25.1240000  33.0870000  44.6870000
  26.3290000  35.9680000  42.3490000  27.3270000  37.0350000  44.3100000
  27.2990000  36.0810000  46.5430000  26.1390000  33.9570000  46.9130000
  25.6110000  34.8990000  41.8860000  24.5440000  33.1090000  42.2650000
  26.6800000  36.7360000  41.6790000  27.6370000  37.1240000  45.6400000
  27.6850000  37.8310000  43.6560000  27.6520000  36.0940000  47.9280000
  26.4980000  33.9390000  48.2730000  25.5300000  33.1620000  46.5200000
  25.4000000  34.8450000  40.8370000  28.1470000  38.0100000  46.0060000
  27.2530000  35.0500000  48.7510000  28.3940000  37.1570000  48.4690000
  26.2080000  33.1200000  48.9270000  27.6570000  35.0760000  50.1730000
  28.7550000  37.1970000  49.7850000  28.6950000  37.9600000  47.8200000
  28.4140000  36.1410000  50.6800000  27.3080000  34.0730000  51.0590000
  29.3250000  38.0420000  50.1480000  28.8310000  36.2210000  52.0200000
  27.7240000  34.1350000  52.4040000  26.6930000  33.2490000  50.7270000
  28.4700000  35.1980000  52.8500000  29.4120000  37.0580000  52.3810000
  27.4650000  33.3340000  53.0770000  28.7690000  35.2300000  53.8830000
  26.0820000  34.9510000  58.1500000  25.3460000  33.9010000  57.5820000
  26.4810000  35.9930000  57.2610000  26.4600000  35.0130000  59.5570000
  25.0440000  33.9070000  56.2060000  25.0160000  33.0870000  58.2020000
  26.2200000  35.9680000  55.8640000  27.2190000  37.0350000  57.8250000
  27.1910000  36.0810000  60.0570000  26.0310000  33.9570000  60.4280000
  25.5020000  34.8990000  55.4000000  24.4360000  33.1090000  55.7800000
  26.5720000  36.7360000  55.1930000  27.5290000  37.1240000  59.1550000
  27.5770000  37.8310000  57.1710000  27.5430000  36.0940000  61.4430000
  26.3900000  33.9390000  61.7870000  25.4220000  33.1620000  60.0340000
  25.2920000  34.8450000  54.3520000  28.0390000  38.0100000  59.5210000
  27.1440000  35.0500000  62.2660000  28.2850000  37.1570000  61.9830000
  26.1000000  33.1200000  62.4410000  27.5490000  35.0760000  63.6870000
  28.6460000  37.1970000  63.3000000  28.5860000  37.9600000  61.3340000
  28.3060000  36.1410000  64.1940000  27.1990000  34.0730000  64.5740000
  29.2160000  38.0420000  63.6630000  28.7220000  36.2210000  65.5350000
  27.6160000  34.1350000  65.9190000  26.5850000  33.2490000  64.2410000
  28.3620000  35.1980000  66.3650000  29.3040000  37.0580000  65.8960000
  27.3570000  33.3340000  66.5920000  28.6610000  35.2300000  67.3970000
  26.4080000  41.1050000  17.6070000  25.6710000  40.0550000  17.0380000
  26.8070000  42.1470000  16.7180000  26.7860000  41.1670000  19.0140000
  25.3690000  40.0610000  15.6620000  25.3410000  39.2410000  17.6580000
  26.5460000  42.1220000  15.3200000  27.5440000  43.1890000  17.2810000
  27.5160000  42.2350000  19.5140000  26.3560000  40.1110000  19.8840000
  25.8280000  41.0530000  14.8570000  24.7610000  39.2630000  15.2360000
  26.8970000  42.8900000  14.6500000  27.8540000  43.2780000  18.6110000
  27.9020000  43.9850000  16.6270000  27.8690000  42.2480000  20.8990000
  26.7150000  40.0930000  21.2440000  25.7470000  39.3160000  19.4910000
  25.6170000  40.9990000  13.8080000  28.3640000  44.1640000  18.9770000
  27.4700000  41.2040000  21.7220000  28.6110000  43.3110000  21.4400000
  26.4250000  39.2740000  21.8980000  27.8750000  41.2300000  23.1440000
  28.9720000  43.3510000  22.7560000  28.9120000  44.1140000  20.7910000
  28.6310000  42.2950000  23.6500000  27.5250000  40.2270000  24.0300000
  29.5420000  44.1960000  23.1190000  29.0480000  42.3750000  24.9910000
  27.9410000  40.2890000  25.3750000  26.9100000  39.4030000  23.6980000
  28.6870000  41.3520000  25.8210000  29.6290000  43.2120000  25.3520000
  27.6820000  39.4880000  26.0480000  28.9860000  41.3840000  26.8530000
  26.1910000  41.1050000  44.6360000  25.4540000  40.0550000  44.0670000
  26.5900000  42.1470000  43.7470000  26.5690000  41.1670000  46.0430000
  25.1520000  40.0610000  42.6910000  25.1240000  39.2410000  44.6870000
  26.3290000  42.1220000  42.3490000  27.3270000  43.1890000  44.3100000
  27.2990000  42.2350000  46.5430000  26.1390000  40.1110000  46.9130000
  25.6110000  41.0530000  41.8860000  24.5440000  39.2630000  42.2650000
  26.6800000  42.8900000  41.6790000  27.6370000  43.2780000  45.6400000
  27.6850000  43.9850000  43.6560000  27.6520000  42.2480000  47.9280000
  26.4980000  40.0930000  48.2730000  25.5300000  39.3160000  46.5200000
  25.4000000  40.9990000  40.8370000  28.1470000  44.1640000  46.0060000
  27.2530000  41.2040000  48.7510000  28.3940000  43.3110000  48.4690000
  26.2080000  39.2740000  48.9270000  27.6570000  41.2300000  50.1730000
  28.7550000  43.3510000  49.7850000  28.6950000  44.1140000  47.8200000
  28.4140000  42.2950000  50.6800000  27.3080000  40.2270000  51.0590000
  29.3250000  44.1960000  50.1480000  28.8310000  42.3750000  52.0200000
  27.7240000  40.2890000  52.4040000  26.6930000  39.4030000  50.7270000
  28.4700000  41.3520000  52.8500000  29.4120000  43.2120000  52.3810000
  27.4650000  39.4880000  53.0770000  28.7690000  41.3840000  53.8830000
  26.0820000  41.1050000  58.1500000  25.3460000  40.0550000  57.5820000
  26.4810000  42.1470000  57.2610000  26.4600000  41.1670000  59.5570000
  25.0440000  40.0610000  56.2060000  25.0160000  39.2410000  58.2020000
  26.2200000  42.1220000  55.8640000  27.2190000  43.1890000  57.8250000
  27.1910000  42.2350000  60.0570000  26.0310000  40.1110000  60.4280000
  25.5020000  41.0530000  55.4000000  24.4360000  39.2630000  55.7800000
  26.5720000  42.8900000  55.1930000  27.5290000  43.2780000  59.1550000
  27.5770000  43.9850000  57.1710000  27.5430000  42.2480000  61.4430000
  26.3900000  40.0930000  61.7870000  25.4220000  39.3160000  60.0340000
  25.2920000  40.9990000  54.3520000  28.0390000  44.1640000  59.5210000
  27.1440000  41.2040000  62.2660000  28.2850000  43.3110000  61.9830000
  26.1000000  39.2740000  62.4410000  27.5490000  41.2300000  63.6870000
  28.6460000  43.3510000  63.3000000  28.5860000  44.1140000  61.3340000
  28.3060000  42.2950000  64.1940000  27.1990000  40.2270000  64.5740000
  29.2160000  44.1960000  63.6630000  28.7220000  42.3750000  65.5350000
  27.6160000  40.2890000  65.9190000  26.5850000  39.4030000  64.2410000
  28.3620000  41.3520000  66.3650000  29.3040000  43.2120000  65.8960000
  27.3570000  39.4880000  66.5920000  28.6610000  41.3840000  67.3970000
  26.5160000  10.3350000   4.0920000  25.7800000   9.2850000   3.5230000
  26.9150000  11.3770000   3.2030000  26.8940000  10.3970000   5.4990000
  25.4780000   9.2910000   2.1470000  25.4500000   8.4710000   4.1440000
  26.6540000  11.3520000   1.8060000  27.6530000  12.4190000   3.7670000
  27.6250000  11.4650000   5.9990000  26.4650000   9.3410000   6.3690000
  25.9360000  10.2830000   1.3420000  24.8700000   8.4930000   1.7220000
  27.0060000  12.1200000   1.1350000  27.9630000  12.5080000   5.0960000
  28.0110000  13.2150000   3.1120000  27.9770000  11.4780000   7.3840000
  26.8240000   9.3230000   7.7290000  25.8560000   8.5460000   5.9760000
  25.7260000  10.2290000   0.2930000  28.4730000  13.3940000   5.4630000
  27.5780000  10.4340000   8.2070000  28.7190000  12.5410000   7.9250000
  26.5340000   8.5040000   8.3830000  27.9830000  10.4600000   9.6290000
  29.0800000  12.5810000   9.2410000  29.0200000  13.3440000   7.2760000
  28.7400000  11.5250000  10.1360000  27.6330000   9.4570000  10.5160000
  29.6500000  13.4260000   9.6050000  29.1560000  11.6050000  11.4770000
  28.0500000   9.5190000  11.8600000  27.0190000   8.6330000  10.1830000
  28.7960000  10.5820000  12.3060000  29.7380000  12.4420000  11.8370000
  27.7910000   8.7180000  12.5330000  29.0950000  10.6140000  13.3390000
  26.2990000  10.3350000  31.1210000  25.5630000   9.2850000  30.5520000
  26.6980000  11.3770000  30.2320000  26.6770000  10.3970000  32.5280000
  25.2610000   9.2910000  29.1770000  25.2330000   8.4710000  31.1730000
  26.4370000  11.3520000  28.8350000  27.4360000  12.4190000  30.7960000
  27.4080000  11.4650000  33.0280000  26.2480000   9.3410000  33.3990000
  25.7190000  10.2830000  28.3710000  24.6530000   8.4930000  28.7510000
  26.7890000  12.1200000  28.1640000  27.7460000  12.5080000  32.1250000
  27.7940000  13.2150000  30.1420000  27.7600000  11.4780000  34.4130000
  26.6070000   9.3230000  34.7580000  25.6390000   8.5460000  33.0050000
  25.5090000  10.2290000  27.3220000  28.2560000  13.3940000  32.4920000
  27.3610000  10.4340000  35.2370000  28.5020000  12.5410000  34.9540000
  26.3170000   8.5040000  35.4120000  27.7660000  10.4600000  36.6580000
  28.8630000  12.5810000  36.2700000  28.8030000  13.3440000  34.3050000
  28.5230000  11.5250000  37.1650000  27.4160000   9.4570000  37.5450000
  29.4330000  13.4260000  36.6340000  28.9390000  11.6050000  38.5060000
  27.8330000   9.5190000  38.8900000  26.8020000   8.6330000  37.2120000
  28.5790000  10.5820000  39.3350000  29.5210000  12.4420000  38.8670000
  27.5740000   8.7180000  39.5630000  28.8780000  10.6140000  40.3680000
  26.5160000   4.1810000   4.0920000  25.7800000   3.1310000   3.5230000
  26.9150000   5.2230000   3.2030000  26.8940000   4.2430000   5.4990000
  25.4780000   3.1370000   2.1470000  25.4500000   2.3170000   4.1440000
  26.6540000   5.1980000   1.8060000  27.6530000   6.2650000   3.7670000
  27.6250000   5.3110000   5.9990000  26.4650000   3.1870000   6.3690000
  25.9360000   4.1290000   1.3420000  24.8700000   2.3390000   1.7220000
  27.0060000   5.9660000   1.1350000  27.9630000   6.3540000   5.0960000
  28.0110000   7.0610000   3.1120000  27.9770000   5.3240000   7.3840000
  26.8240000   3.1690000   7.7290000  25.8560000   2.3920000   5.9760000
  25.7260000   4.0750000   0.2930000  28.4730000   7.2400000   5.4630000
  27.5780000   4.2800000   8.2070000  28.7190000   6.3870000   7.9250000
  26.5340000   2.3500000   8.3830000  27.9830000   4.3060000   9.6290000
  29.0800000   6.4270000   9.2410000  29.0200000   7.1900000   7.2760000
  28.7400000   5.3710000  10.1360000  27.6330000   3.3030000  10.5160000
  29.6500000   7.2720000   9.6050000  29.1560000   5.4510000  11.4770000
  28.0500000   3.3650000  11.8600000  27.0190000   2.4790000  10.1830000
  28.7960000   4.4280000  12.3060000  29.7380000   6.2880000  11.8370000
  27.7910000   2.5640000  12.5330000  29.0950000   4.4600000  13.3390000
  26.0820000   4.1810000  58.1500000  25.3460000   3.1310000  57.5820000
  26.4810000   5.2230000  57.2610000  26.4600000   4.2430000  59.5570000
  25.0440000   3.1370000  56.2060000  25.0160000   2.3170000  58.2020000
  26.2200000   5.1980000  55.8640000  27.2190000   6.2650000  57.8250000
  27.1910000   5.3110000  60.0570000  26.0310000   3.1870000  60.4280000
  25.5020000   4.1290000  55.4000000  24.4360000   2.3390000  55.7800000
  26.5720000   5.9660000  55.1930000  27.5290000   6.3540000  59.1550000
  27.5770000   7.0610000  57.1710000  27.5430000   5.3240000  61.4430000
  26.3900000   3.1690000  61.7870000  25.4220000   2.3920000  60.0340000
  25.2920000   4.0750000  54.3520000  28.0390000   7.2400000  59.5210000
  27.1440000   4.2800000  62.2660000  28.2850000   6.3870000  61.9830000
  26.1000000   2.3500000  62.4410000  27.5490000   4.3060000  63.6870000
  28.6460000   6.4270000  63.3000000  28.5860000   7.1900000  61.3340000
  28.3060000   5.3710000  64.1940000  27.1990000   3.3030000  64.5740000
  29.2160000   7.2720000  63.6630000  28.7220000   5.4510000  65.5350000
  27.6160000   3.3650000  65.9190000  26.5850000   2.4790000  64.2410000
  28.3620000   4.4280000  66.3650000  29.3040000   6.2880000  65.8960000
  27.3570000   2.5640000  66.5920000  28.6610000   4.4600000  67.3970000
  26.5160000  16.4890000   4.0920000  25.7800000  15.4390000   3.5230000
  26.9150000  17.5310000   3.2030000  26.8940000  16.5510000   5.4990000
  25.4780000  15.4450000   2.1470000  25.4500000  14.6250000   4.1440000
  26.6540000  17.5060000   1.8060000  27.6530000  18.5730000   3.7670000
  27.6250000  17.6190000   5.9990000  26.4650000  15.4950000   6.3690000
  25.9360000  16.4370000   1.3420000  24.8700000  14.6470000   1.7220000
  27.0060000  18.2740000   1.1350000  27.9630000  18.6620000   5.0960000
  28.0110000  19.3690000   3.1120000  27.9770000  17.6320000   7.3840000
  26.8240000  15.4770000   7.7290000  25.8560000  14.7000000   5.9760000
  25.7260000  16.3830000   0.2930000  28.4730000  19.5480000   5.4630000
  27.5780000  16.5880000   8.2070000  28.7190000  18.6950000   7.9250000
  26.5340000  14.6580000   8.3830000  27.9830000  16.6140000   9.6290000
  29.0800000  18.7350000   9.2410000  29.0200000  19.4980000   7.2760000
  28.7400000  17.6790000  10.1360000  27.6330000  15.6110000  10.5160000
  29.6500000  19.5800000   9.6050000  29.1560000  17.7590000  11.4770000
  28.0500000  15.6730000  11.8600000  27.0190000  14.7870000  10.1830000
  28.7960000  16.7360000  12.3060000  29.7380000  18.5960000  11.8370000
  27.7910000  14.8720000  12.5330000  29.0950000  16.7680000  13.3390000
  26.2990000  16.4890000  31.1210000  25.5630000  15.4390000  30.5520000
  26.6980000  17.5310000  30.2320000  26.6770000  16.5510000  32.5280000
  25.2610000  15.4450000  29.1770000  25.2330000  14.6250000  31.1730000
  26.4370000  17.5060000  28.8350000  27.4360000  18.5730000  30.7960000
  27.4080000  17.6190000  33.0280000  26.2480000  15.4950000  33.3990000
  25.7190000  16.4370000  28.3710000  24.6530000  14.6470000  28.7510000
  26.7890000  18.2740000  28.1640000  27.7460000  18.6620000  32.1250000
  27.7940000  19.3690000  30.1420000  27.7600000  17.6320000  34.4130000
  26.6070000  15.4770000  34.7580000  25.6390000  14.7000000  33.0050000
  25.5090000  16.3830000  27.3220000  28.2560000  19.5480000  32.4920000
  27.3610000  16.5880000  35.2370000  28.5020000  18.6950000  34.9540000
  26.3170000  14.6580000  35.4120000  27.7660000  16.6140000  36.6580000
  28.8630000  18.7350000  36.2700000  28.8030000  19.4980000  34.3050000
  28.5230000  17.6790000  37.1650000  27.4160000  15.6110000  37.5450000
  29.4330000  19.5800000  36.6340000  28.9390000  17.7590000  38.5060000
  27.8330000  15.6730000  38.8900000  26.8020000  14.7870000  37.2120000
  28.5790000  16.7360000  39.3350000  29.5210000  18.5960000  38.8670000
  27.5740000  14.8720000  39.5630000  28.8780000  16.7680000  40.3680000
  26.5160000  22.6430000   4.0920000  25.7800000  21.5930000   3.5230000
  26.9150000  23.6850000   3.2030000  26.8940000  22.7050000   5.4990000
  25.4780000  21.5990000   2.1470000  25.4500000  20.7790000   4.1440000
  26.6540000  23.6600000   1.8060000  27.6530000  24.7270000   3.7670000
  27.6250000  23.7730000   5.9990000  26.4650000  21.6490000   6.3690000
  25.9360000  22.5910000   1.3420000  24.8700000  20.8010000   1.7220000
  27.0060000  24.4280000   1.1350000  27.9630000  24.8160000   5.0960000
  28.0110000  25.5230000   3.1120000  27.9770000  23.7860000   7.3840000
  26.8240000  21.6310000   7.7290000  25.8560000  20.8540000   5.9760000
  25.7260000  22.5370000   0.2930000  28.4730000  25.7020000   5.4630000
  27.5780000  22.7420000   8.2070000  28.7190000  24.8490000   7.9250000
  26.5340000  20.8120000   8.3830000  27.9830000  22.7680000   9.6290000
  29.0800000  24.8890000   9.2410000  29.0200000  25.6520000   7.2760000
  28.7400000  23.8330000  10.1360000  27.6330000  21.7650000  10.5160000
  29.6500000  25.7340000   9.6050000  29.1560000  23.9130000  11.4770000
  28.0500000  21.8270000  11.8600000  27.0190000  20.9410000  10.1830000
  28.7960000  22.8900000  12.3060000  29.7380000  24.7500000  11.8370000
  27.7910000  21.0260000  12.5330000  29.0950000  22.9220000  13.3390000
  26.2990000  22.6430000  31.1210000  25.5630000  21.5930000  30.5520000
  26.6980000  23.6850000  30.2320000  26.6770000  22.7050000  32.5280000
  25.2610000  21.5990000  29.1770000  25.2330000  20.7790000  31.1730000
  26.4370000  23.6600000  28.8350000  27.4360000  24.7270000  30.7960000
  27.4080000  23.7730000  33.0280000  26.2480000  21.6490000  33.3990000
  25.7190000  22.5910000  28.3710000  24.6530000  20.8010000  28.7510000
  26.7890000  24.4280000  28.1640000  27.7460000  24.8160000  32.1250000
  27.7940000  25.5230000  30.1420000  27.7600000  23.7860000  34.4130000
  26.6070000  21.6310000  34.7580000  25.6390000  20.8540000  33.0050000
  25.5090000  22.5370000  27.3220000  28.2560000  25.7020000  32.4920000
  27.3610000  22.7420000  35.2370000  28.5020000  24.8490000  34.9540000
  26.3170000  20.8120000  35.4120000  27.7660000  22.7680000  36.6580000
  28.8630000  24.8890000  36.2700000  28.8030000  25.6520000  34.3050000
  28.5230000  23.8330000  37.1650000  27.4160000  21.7650000  37.5450000
  29.4330000  25.7340000  36.6340000  28.9390000  23.9130000  38.5060000
  27.8330000  21.8270000  38.8900000  26.8020000  20.9410000  37.2120000
  28.5790000  22.8900000  39.3350000  29.5210000  24.7500000  38.8670000
  27.5740000  21.0260000  39.5630000  28.8780000  22.9220000  40.3680000
  26.5160000  28.7970000   4.0920000  25.7800000  27.7470000   3.5230000
  26.9150000  29.8390000   3.2030000  26.8940000  28.8590000   5.4990000
  25.4780000  27.7530000   2.1470000  25.4500000  26.9330000   4.1440000
  26.6540000  29.8140000   1.8060000  27.6530000  30.8810000   3.7670000
  27.6250000  29.9270000   5.9990000  26.4650000  27.8030000   6.3690000
  25.9360000  28.7450000   1.3420000  24.8700000  26.9550000   1.7220000
  27.0060000  30.5820000   1.1350000  27.9630000  30.9700000   5.0960000
  28.0110000  31.6770000   3.1120000  27.9770000  29.9400000   7.3840000
  26.8240000  27.7850000   7.7290000  25.8560000  27.0080000   5.9760000
  25.7260000  28.6910000   0.2930000  28.4730000  31.8560000   5.4630000
  27.5780000  28.8960000   8.2070000  28.7190000  31.0030000   7.9250000
  26.5340000  26.9660000   8.3830000  27.9830000  28.9220000   9.6290000
  29.0800000  31.0430000   9.2410000  29.0200000  31.8060000   7.2760000
  28.7400000  29.9870000  10.1360000  27.6330000  27.9190000  10.5160000
  29.6500000  31.8880000   9.6050000  29.1560000  30.0670000  11.4770000
  28.0500000  27.9810000  11.8600000  27.0190000  27.0950000  10.1830000
  28.7960000  29.0440000  12.3060000  29.7380000  30.9040000  11.8370000
  27.7910000  27.1800000  12.5330000  29.0950000  29.0760000  13.3390000
  26.2990000  28.7970000  31.1210000  25.5630000  27.7470000  30.5520000
  26.6980000  29.8390000  30.2320000  26.6770000  28.8590000  32.5280000
  25.2610000  27.7530000  29.1770000  25.2330000  26.9330000  31.1730000
  26.4370000  29.8140000  28.8350000  27.4360000  30.8810000  30.7960000
  27.4080000  29.9270000  33.0280000  26.2480000  27.8030000  33.3990000
  25.7190000  28.7450000  28.3710000  24.6530000  26.9550000  28.7510000
  26.7890000  30.5820000  28.1640000  27.7460000  30.9700000  32.1250000
  27.7940000  31.6770000  30.1420000  27.7600000  29.9400000  34.4130000
  26.6070000  27.7850000  34.7580000  25.6390000  27.0080000  33.0050000
  25.5090000  28.6910000  27.3220000  28.2560000  31.8560000  32.4920000
  27.3610000  28.8960000  35.2370000  28.5020000  31.0030000  34.9540000
  26.3170000  26.9660000  35.4120000  27.7660000  28.9220000  36.6580000
  28.8630000  31.0430000  36.2700000  28.8030000  31.8060000  34.3050000
  28.5230000  29.9870000  37.1650000  27.4160000  27.9190000  37.5450000
  29.4330000  31.8880000  36.6340000  28.9390000  30.0670000  38.5060000
  27.8330000  27.9810000  38.8900000  26.8020000  27.0950000  37.2120000
  28.5790000  29.0440000  39.3350000  29.5210000  30.9040000  38.8670000
  27.5740000  27.1800000  39.5630000  28.8780000  29.0760000  40.3680000
  26.5160000  34.9510000   4.0920000  25.7800000  33.9010000   3.5230000
  26.9150000  35.9930000   3.2030000  26.8940000  35.0130000   5.4990000
  25.4780000  33.9070000   2.1470000  25.4500000  33.0870000   4.1440000
  26.6540000  35.9680000   1.8060000  27.6530000  37.0350000   3.7670000
  27.6250000  36.0810000   5.9990000  26.4650000  33.9570000   6.3690000
  25.9360000  34.8990000   1.3420000  24.8700000  33.1090000   1.7220000
  27.0060000  36.7360000   1.1350000  27.9630000  37.1240000   5.0960000
  28.0110000  37.8310000   3.1120000  27.9770000  36.0940000   7.3840000
  26.8240000  33.9390000   7.7290000  25.8560000  33.1620000   5.9760000
  25.7260000  34.8450000   0.2930000  28.4730000  38.0100000   5.4630000
  27.5780000  35.0500000   8.2070000  28.7190000  37.1570000   7.9250000
  26.5340000  33.1200000   8.3830000  27.9830000  35.0760000   9.6290000
  29.0800000  37.1970000   9.2410000  29.0200000  37.9600000   7.2760000
  28.7400000  36.1410000  10.1360000  27.6330000  34.0730000  10.5160000
  29.6500000  38.0420000   9.6050000  29.1560000  36.2210000  11.4770000
  28.0500000  34.1350000  11.8600000  27.0190000  33.2490000  10.1830000
  28.7960000  35.1980000  12.3060000  29.7380000  37.0580000  11.8370000
  27.7910000  33.3340000  12.5330000  29.0950000  35.2300000  13.3390000
  26.2990000  34.9510000  31.1210000  25.5630000  33.9010000  30.5520000
  26.6980000  35.9930000  30.2320000  26.6770000  35.0130000  32.5280000
  25.2610000  33.9070000  29.1770000  25.2330000  33.0870000  31.1730000
  26.4370000  35.9680000  28.8350000  27.4360000  37.0350000  30.7960000
  27.4080000  36.0810000  33.0280000  26.2480000  33.9570000  33.3990000
  25.7190000  34.8990000  28.3710000  24.6530000  33.1090000  28.7510000
  26.7890000  36.7360000  28.1640000  27.7460000  37.1240000  32.1250000
  27.7940000  37.8310000  30.1420000  27.7600000  36.0940000  34.4130000
  26.6070000  33.9390000  34.7580000  25.6390000  33.1620000  33.0050000
  25.5090000  34.8450000  27.3220000  28.2560000  38.0100000  32.4920000
  27.3610000  35.0500000  35.2370000  28.5020000  37.1570000  34.9540000
  26.3170000  33.1200000  35.4120000  27.7660000  35.0760000  36.6580000
  28.8630000  37.1970000  36.2700000  28.8030000  37.9600000  34.3050000
  28.5230000  36.1410000  37.1650000  27.4160000  34.0730000  37.5450000
  29.4330000  38.0420000  36.6340000  28.9390000  36.2210000  38.5060000
  27.8330000  34.1350000  38.8900000  26.8020000  33.2490000  37.2120000
  28.5790000  35.1980000  39.3350000  29.5210000  37.0580000  38.8670000
  27.5740000  33.3340000  39.5630000  28.8780000  35.2300000  40.3680000
  26.5160000  41.1050000   4.0920000  25.7800000  40.0550000   3.5230000
  26.9150000  42.1470000   3.2030000  26.8940000  41.1670000   5.4990000
  25.4780000  40.0610000   2.1470000  25.4500000  39.2410000   4.1440000
  26.6540000  42.1220000   1.8060000  27.6530000  43.1890000   3.7670000
  27.6250000  42.2350000   5.9990000  26.4650000  40.1110000   6.3690000
  25.9360000  41.0530000   1.3420000  24.8700000  39.2630000   1.7220000
  27.0060000  42.8900000   1.1350000  27.9630000  43.2780000   5.0960000
  28.0110000  43.9850000   3.1120000  27.9770000  42.2480000   7.3840000
  26.8240000  40.0930000   7.7290000  25.8560000  39.3160000   5.9760000
  25.7260000  40.9990000   0.2930000  28.4730000  44.1640000   5.4630000
  27.5780000  41.2040000   8.2070000  28.7190000  43.3110000   7.9250000
  26.5340000  39.2740000   8.3830000  27.9830000  41.2300000   9.6290000
  29.0800000  43.3510000   9.2410000  29.0200000  44.1140000   7.2760000
  28.7400000  42.2950000  10.1360000  27.6330000  40.2270000  10.5160000
  29.6500000  44.1960000   9.6050000  29.1560000  42.3750000  11.4770000
  28.0500000  40.2890000  11.8600000  27.0190000  39.4030000  10.1830000
  28.7960000  41.3520000  12.3060000  29.7380000  43.2120000  11.8370000
  27.7910000  39.4880000  12.5330000  29.0950000  41.3840000  13.3390000
  26.2990000  41.1050000  31.1210000  25.5630000  40.0550000  30.5520000
  26.6980000  42.1470000  30.2320000  26.6770000  41.1670000  32.5280000
  25.2610000  40.0610000  29.1770000  25.2330000  39.2410000  31.1730000
  26.4370000  42.1220000  28.8350000  27.4360000  43.1890000  30.7960000
  27.4080000  42.2350000  33.0280000  26.2480000  40.1110000  33.3990000
  25.7190000  41.0530000  28.3710000  24.6530000  39.2630000  28.7510000
  26.7890000  42.8900000  28.1640000  27.7460000  43.2780000  32.1250000
  27.7940000  43.9850000  30.1420000  27.7600000  42.2480000  34.4130000
  26.6070000  40.0930000  34.7580000  25.6390000  39.3160000  33.0050000
  25.5090000  40.9990000  27.3220000  28.2560000  44.1640000  32.4920000
  27.3610000  41.2040000  35.2370000  28.5020000  43.3110000  34.9540000
  26.3170000  39.2740000  35.4120000  27.7660000  41.2300000  36.6580000
  28.8630000  43.3510000  36.2700000  28.8030000  44.1140000  34.3050000
  28.5230000  42.2950000  37.1650000  27.4160000  40.2270000  37.5450000
  29.4330000  44.1960000  36.6340000  28.9390000  42.3750000  38.5060000
  27.8330000  40.2890000  38.8900000  26.8020000  39.4030000  37.2120000
  28.5790000  41.3520000  39.3350000  29.5210000  43.2120000  38.8670000
  27.5740000  39.4880000  39.5630000  28.8780000  41.3840000  40.3680000
  26.4080000   4.1810000  17.6070000  25.6710000   3.1310000  17.0380000
  26.8070000   5.2230000  16.7180000  26.7860000   4.2430000  19.0140000
  25.3690000   3.1370000  15.6620000  25.3410000   2.3170000  17.6580000
  26.5460000   5.1980000  15.3200000  27.5440000   6.2650000  17.2810000
  27.5160000   5.3110000  19.5140000  26.3560000   3.1870000  19.8840000
  25.8280000   4.1290000  14.8570000  24.7610000   2.3390000  15.2360000
  26.8970000   5.9660000  14.6500000  27.8540000   6.3540000  18.6110000
  27.9020000   7.0610000  16.6270000  27.8690000   5.3240000  20.8990000
  26.7150000   3.1690000  21.2440000  25.7470000   2.3920000  19.4910000
  25.6170000   4.0750000  13.8080000  28.3640000   7.2400000  18.9770000
  27.4700000   4.2800000  21.7220000  28.6110000   6.3870000  21.4400000
  26.4250000   2.3500000  21.8980000  27.8750000   4.3060000  23.1440000
  28.9720000   6.4270000  22.7560000  28.9120000   7.1900000  20.7910000
  28.6310000   5.3710000  23.6500000  27.5250000   3.3030000  24.0300000
  29.5420000   7.2720000  23.1190000  29.0480000   5.4510000  24.9910000
  27.9410000   3.3650000  25.3750000  26.9100000   2.4790000  23.6980000
  28.6870000   4.4280000  25.8210000  29.6290000   6.2880000  25.3520000
  27.6820000   2.5640000  26.0480000  28.9860000   4.4600000  26.8530000
  26.2990000   4.1810000  31.1210000  25.5630000   3.1310000  30.5520000
  26.6980000   5.2230000  30.2320000  26.6770000   4.2430000  32.5280000
  25.2610000   3.1370000  29.1770000  25.2330000   2.3170000  31.1730000
  26.4370000   5.1980000  28.8350000  27.4360000   6.2650000  30.7960000
  27.4080000   5.3110000  33.0280000  26.2480000   3.1870000  33.3990000
  25.7190000   4.1290000  28.3710000  24.6530000   2.3390000  28.7510000
  26.7890000   5.9660000  28.1640000  27.7460000   6.3540000  32.1250000
  27.7940000   7.0610000  30.1420000  27.7600000   5.3240000  34.4130000
  26.6070000   3.1690000  34.7580000  25.6390000   2.3920000  33.0050000
  25.5090000   4.0750000  27.3220000  28.2560000   7.2400000  32.4920000
  27.3610000   4.2800000  35.2370000  28.5020000   6.3870000  34.9540000
  26.3170000   2.3500000  35.4120000  27.7660000   4.3060000  36.6580000
  28.8630000   6.4270000  36.2700000  28.8030000   7.1900000  34.3050000
  28.5230000   5.3710000  37.1650000  27.4160000   3.3030000  37.5450000
  29.4330000   7.2720000  36.6340000  28.9390000   5.4510000  38.5060000
  27.8330000   3.3650000  38.8900000  26.8020000   2.4790000  37.2120000
  28.5790000   4.4280000  39.3350000  29.5210000   6.2880000  38.8670000
  27.5740000   2.5640000  39.5630000  28.8780000   4.4600000  40.3680000
  32.3010000   7.2580000  63.4810000  33.0380000   6.2080000  64.0500000
  31.9020000   8.3000000  64.3700000  31.9230000   7.3200000  62.0740000
  33.3400000   6.2140000  65.4250000  33.3670000   5.3940000  63.4290000
  32.1630000   8.2750000  65.7670000  31.1650000   9.3420000  63.8060000
  31.1930000   8.3880000  61.5740000  32.3530000   6.2640000  61.2030000
  32.8810000   7.2060000  66.2310000  33.9480000   5.4160000  65.8510000
  31.8120000   9.0430000  66.4380000  30.8550000   9.4310000  62.4760000
  30.8070000  10.1380000  64.4600000  30.8400000   8.4010000  60.1880000
  31.9940000   6.2460000  59.8440000  32.9620000   5.4690000  61.5970000
  33.0920000   7.1520000  67.2800000  30.3450000  10.3170000  62.1100000
  31.2390000   7.3570000  59.3650000  30.0980000   9.4640000  59.6480000
  32.2840000   5.4270000  59.1900000  30.8340000   7.3830000  57.9440000
  29.7370000   9.5040000  58.3320000  29.7970000  10.2670000  60.2970000
  30.0780000   8.4480000  57.4370000  31.1840000   6.3800000  57.0570000
  29.1670000  10.3490000  57.9680000  29.6610000   8.5280000  56.0960000
  30.7680000   6.4420000  55.7120000  31.7990000   5.5560000  57.3900000
  30.0220000   7.5050000  55.2660000  29.0800000   9.3650000  55.7350000
  31.0270000   5.6410000  55.0390000  29.7230000   7.5370000  54.2340000
  32.3010000  13.4120000  63.4810000  33.0380000  12.3620000  64.0500000
  31.9020000  14.4540000  64.3700000  31.9230000  13.4740000  62.0740000
  33.3400000  12.3680000  65.4250000  33.3670000  11.5480000  63.4290000
  32.1630000  14.4290000  65.7670000  31.1650000  15.4960000  63.8060000
  31.1930000  14.5420000  61.5740000  32.3530000  12.4180000  61.2030000
  32.8810000  13.3600000  66.2310000  33.9480000  11.5700000  65.8510000
  31.8120000  15.1970000  66.4380000  30.8550000  15.5850000  62.4760000
  30.8070000  16.2920000  64.4600000  30.8400000  14.5550000  60.1880000
  31.9940000  12.4000000  59.8440000  32.9620000  11.6230000  61.5970000
  33.0920000  13.3060000  67.2800000  30.3450000  16.4710000  62.1100000
  31.2390000  13.5110000  59.3650000  30.0980000  15.6180000  59.6480000
  32.2840000  11.5810000  59.1900000  30.8340000  13.5370000  57.9440000
  29.7370000  15.6580000  58.3320000  29.7970000  16.4210000  60.2970000
  30.0780000  14.6020000  57.4370000  31.1840000  12.5340000  57.0570000
  29.1670000  16.5030000  57.9680000  29.6610000  14.6820000  56.0960000
  30.7680000  12.5960000  55.7120000  31.7990000  11.7100000  57.3900000
  30.0220000  13.6590000  55.2660000  29.0800000  15.5190000  55.7350000
  31.0270000  11.7950000  55.0390000  29.7230000  13.6910000  54.2340000
  32.3010000  19.5660000  63.4810000  33.0380000  18.5160000  64.0500000
  31.9020000  20.6080000  64.3700000  31.9230000  19.6280000  62.0740000
  33.3400000  18.5220000  65.4250000  33.3670000  17.7020000  63.4290000
  32.1630000  20.5830000  65.7670000  31.1650000  21.6500000  63.8060000
  31.1930000  20.6960000  61.5740000  32.3530000  18.5720000  61.2030000
  32.8810000  19.5140000  66.2310000  33.9480000  17.7240000  65.8510000
  31.8120000  21.3510000  66.4380000  30.8550000  21.7390000  62.4760000
  30.8070000  22.4460000  64.4600000  30.8400000  20.7090000  60.1880000
  31.9940000  18.5540000  59.8440000  32.9620000  17.7770000  61.5970000
  33.0920000  19.4600000  67.2800000  30.3450000  22.6250000  62.1100000
  31.2390000  19.6650000  59.3650000  30.0980000  21.7720000  59.6480000
  32.2840000  17.7350000  59.1900000  30.8340000  19.6910000  57.9440000
  29.7370000  21.8120000  58.3320000  29.7970000  22.5750000  60.2970000
  30.0780000  20.7560000  57.4370000  31.1840000  18.6880000  57.0570000
  29.1670000  22.6570000  57.9680000  29.6610000  20.8360000  56.0960000
  30.7680000  18.7500000  55.7120000  31.7990000  17.8640000  57.3900000
  30.0220000  19.8130000  55.2660000  29.0800000  21.6730000  55.7350000
  31.0270000  17.9490000  55.0390000  29.7230000  19.8450000  54.2340000
  32.3010000  25.7200000  63.4810000  33.0380000  24.6700000  64.0500000
  31.9020000  26.7620000  64.3700000  31.9230000  25.7820000  62.0740000
  33.3400000  24.6760000  65.4250000  33.3670000  23.8560000  63.4290000
  32.1630000  26.7370000  65.7670000  31.1650000  27.8040000  63.8060000
  31.1930000  26.8500000  61.5740000  32.3530000  24.7260000  61.2030000
  32.8810000  25.6680000  66.2310000  33.9480000  23.8780000  65.8510000
  31.8120000  27.5050000  66.4380000  30.8550000  27.8930000  62.4760000
  30.8070000  28.6000000  64.4600000  30.8400000  26.8630000  60.1880000
  31.9940000  24.7080000  59.8440000  32.9620000  23.9310000  61.5970000
  33.0920000  25.6140000  67.2800000  30.3450000  28.7790000  62.1100000
  31.2390000  25.8190000  59.3650000  30.0980000  27.9260000  59.6480000
  32.2840000  23.8890000  59.1900000  30.8340000  25.8450000  57.9440000
  29.7370000  27.9660000  58.3320000  29.7970000  28.7290000  60.2970000
  30.0780000  26.9100000  57.4370000  31.1840000  24.8420000  57.0570000
  29.1670000  28.8110000  57.9680000  29.6610000  26.9900000  56.0960000
  30.7680000  24.9040000  55.7120000  31.7990000  24.0180000  57.3900000
  30.0220000  25.9670000  55.2660000  29.0800000  27.8270000  55.7350000
  31.0270000  24.1030000  55.0390000  29.7230000  25.9990000  54.2340000
  32.3010000  31.8740000  63.4810000  33.0380000  30.8240000  64.0500000
  31.9020000  32.9160000  64.3700000  31.9230000  31.9360000  62.0740000
  33.3400000  30.8300000  65.4250000  33.3670000  30.0100000  63.4290000
  32.1630000  32.8910000  65.7670000  31.1650000  33.9580000  63.8060000
  31.1930000  33.0040000  61.5740000  32.3530000  30.8800000  61.2030000
  32.8810000  31.8220000  66.2310000  33.9480000  30.0320000  65.8510000
  31.8120000  33.6590000  66.4380000  30.8550000  34.0470000  62.4760000
  30.8070000  34.7540000  64.4600000  30.8400000  33.0170000  60.1880000
  31.9940000  30.8620000  59.8440000  32.9620000  30.0850000  61.5970000
  33.0920000  31.7680000  67.2800000  30.3450000  34.9330000  62.1100000
  31.2390000  31.9730000  59.3650000  30.0980000  34.0800000  59.6480000
  32.2840000  30.0430000  59.1900000  30.8340000  31.9990000  57.9440000
  29.7370000  34.1200000  58.3320000  29.7970000  34.8830000  60.2970000
  30.0780000  33.0640000  57.4370000  31.1840000  30.9960000  57.0570000
  29.1670000  34.9650000  57.9680000  29.6610000  33.1440000  56.0960000
  30.7680000  31.0580000  55.7120000  31.7990000  30.1720000  57.3900000
  30.0220000  32.1210000  55.2660000  29.0800000  33.9810000  55.7350000
  31.0270000  30.2570000  55.0390000  29.7230000  32.1530000  54.2340000
  32.3010000   1.1040000  63.4810000  33.0380000   0.0540000  64.0500000
  31.9020000   2.1460000  64.3700000  31.9230000   1.1660000  62.0740000
  33.3400000   0.0600000  65.4250000  33.3670000  -0.7600000  63.4290000
  32.1630000   2.1210000  65.7670000  31.1650000   3.1880000  63.8060000
  31.1930000   2.2340000  61.5740000  32.3530000   0.1100000  61.2030000
  32.8810000   1.0520000  66.2310000  33.9480000  -0.7380000  65.8510000
  31.8120000   2.8890000  66.4380000  30.8550000   3.2770000  62.4760000
  30.8070000   3.9840000  64.4600000  30.8400000   2.2470000  60.1880000
  31.9940000   0.0920000  59.8440000  32.9620000  -0.6850000  61.5970000
  33.0920000   0.9980000  67.2800000  30.3450000   4.1630000  62.1100000
  31.2390000   1.2030000  59.3650000  30.0980000   3.3100000  59.6480000
  32.2840000  -0.7270000  59.1900000  30.8340000   1.2290000  57.9440000
  29.7370000   3.3500000  58.3320000  29.7970000   4.1130000  60.2970000
  30.0780000   2.2940000  57.4370000  31.1840000   0.2260000  57.0570000
  29.1670000   4.1950000  57.9680000  29.6610000   2.3740000  56.0960000
  30.7680000   0.2880000  55.7120000  31.7990000  -0.5980000  57.3900000
  30.0220000   1.3510000  55.2660000  29.0800000   3.2110000  55.7350000
  31.0270000  -0.5130000  55.0390000  29.7230000   1.3830000  54.2340000
  32.3010000  38.0280000  63.4810000  33.0380000  36.9780000  64.0500000
  31.9020000  39.0700000  64.3700000  31.9230000  38.0900000  62.0740000
  33.3400000  36.9840000  65.4250000  33.3670000  36.1640000  63.4290000
  32.1630000  39.0450000  65.7670000  31.1650000  40.1120000  63.8060000
  31.1930000  39.1580000  61.5740000  32.3530000  37.0340000  61.2030000
  32.8810000  37.9760000  66.2310000  33.9480000  36.1860000  65.8510000
  31.8120000  39.8130000  66.4380000  30.8550000  40.2010000  62.4760000
  30.8070000  40.9080000  64.4600000  30.8400000  39.1710000  60.1880000
  31.9940000  37.0160000  59.8440000  32.9620000  36.2390000  61.5970000
  33.0920000  37.9220000  67.2800000  30.3450000  41.0870000  62.1100000
  31.2390000  38.1270000  59.3650000  30.0980000  40.2340000  59.6480000
  32.2840000  36.1970000  59.1900000  30.8340000  38.1530000  57.9440000
  29.7370000  40.2740000  58.3320000  29.7970000  41.0370000  60.2970000
  30.0780000  39.2180000  57.4370000  31.1840000  37.1500000  57.0570000
  29.1670000  41.1190000  57.9680000  29.6610000  39.2980000  56.0960000
  30.7680000  37.2120000  55.7120000  31.7990000  36.3260000  57.3900000
  30.0220000  38.2750000  55.2660000  29.0800000  40.1350000  55.7350000
  31.0270000  36.4110000  55.0390000  29.7230000  38.3070000  54.2340000
  32.7350000   7.2580000   9.4220000  33.4720000   6.2080000   9.9910000
  32.3360000   8.3000000  10.3120000  32.3570000   7.3200000   8.0150000
  33.7740000   6.2140000  11.3670000  33.8020000   5.3940000   9.3710000
  32.5970000   8.2750000  11.7090000  31.5990000   9.3420000   9.7480000
  31.6270000   8.3880000   7.5150000  32.7870000   6.2640000   7.1450000
  33.3150000   7.2060000  12.1730000  34.3820000   5.4160000  11.7930000
  32.2460000   9.0430000  12.3790000  31.2890000   9.4310000   8.4180000
  31.2410000  10.1380000  10.4020000  31.2740000   8.4010000   6.1300000
  32.4280000   6.2460000   5.7860000  33.3960000   5.4690000   7.5380000
  33.5260000   7.1520000  13.2210000  30.7790000  10.3170000   8.0520000
  31.6730000   7.3570000   5.3070000  30.5320000   9.4640000   5.5900000
  32.7180000   5.4270000   5.1310000  31.2680000   7.3830000   3.8850000
  30.1710000   9.5040000   4.2730000  30.2310000  10.2670000   6.2380000
  30.5120000   8.4480000   3.3790000  31.6180000   6.3800000   2.9990000
  29.6010000  10.3490000   3.9100000  30.0950000   8.5280000   2.0380000
  31.2020000   6.4420000   1.6540000  32.2330000   5.5560000   3.3310000
  30.4560000   7.5050000   1.2080000  29.5140000   9.3650000   1.6770000
  31.4610000   5.6410000   0.9810000  30.1570000   7.5370000   0.1760000
  32.6270000   7.2580000  22.9370000  33.3630000   6.2080000  23.5060000
  32.2280000   8.3000000  23.8260000  32.2490000   7.3200000  21.5300000
  33.6650000   6.2140000  24.8820000  33.6930000   5.3940000  22.8860000
  32.4890000   8.2750000  25.2240000  31.4900000   9.3420000  23.2630000
  31.5180000   8.3880000  21.0300000  32.6780000   6.2640000  20.6600000
  33.2070000   7.2060000  25.6870000  34.2730000   5.4160000  25.3070000
  32.1370000   9.0430000  25.8940000  31.1800000   9.4310000  21.9330000
  31.1320000  10.1380000  23.9170000  31.1660000   8.4010000  19.6450000
  32.3190000   6.2460000  19.3000000  33.2870000   5.4690000  21.0530000
  33.4170000   7.1520000  26.7360000  30.6700000  10.3170000  21.5670000
  31.5650000   7.3570000  18.8220000  30.4240000   9.4640000  19.1040000
  32.6090000   5.4270000  18.6460000  31.1600000   7.3830000  17.4000000
  30.0630000   9.5040000  17.7880000  30.1230000  10.2670000  19.7530000
  30.4030000   8.4480000  16.8930000  31.5100000   6.3800000  16.5130000
  29.4930000  10.3490000  17.4240000  29.9870000   8.5280000  15.5530000
  31.0930000   6.4420000  15.1690000  32.1240000   5.5560000  16.8460000
  30.3470000   7.5050000  14.7230000  29.4050000   9.3650000  15.1920000
  31.3520000   5.6410000  14.4960000  30.0480000   7.5370000  13.6900000
  32.5180000   7.2580000  36.4510000  33.2550000   6.2080000  37.0200000
  32.1190000   8.3000000  37.3410000  32.1400000   7.3200000  35.0450000
  33.5570000   6.2140000  38.3960000  33.5850000   5.3940000  36.4000000
  32.3800000   8.2750000  38.7380000  31.3820000   9.3420000  36.7770000
  31.4100000   8.3880000  34.5450000  32.5700000   6.2640000  34.1740000
  33.0980000   7.2060000  39.2020000  34.1650000   5.4160000  38.8220000
  32.0290000   9.0430000  39.4080000  31.0720000   9.4310000  35.4470000
  31.0240000  10.1380000  37.4310000  31.0570000   8.4010000  33.1590000
  32.2110000   6.2460000  32.8150000  33.1790000   5.4690000  34.5680000
  33.3090000   7.1520000  40.2500000  30.5620000  10.3170000  35.0810000
  31.4560000   7.3570000  32.3360000  30.3150000   9.4640000  32.6190000
  32.5010000   5.4270000  32.1610000  31.0510000   7.3830000  30.9150000
  29.9540000   9.5040000  31.3020000  30.0140000  10.2670000  33.2670000
  30.2950000   8.4480000  30.4080000  31.4010000   6.3800000  30.0280000
  29.3840000  10.3490000  30.9390000  29.8780000   8.5280000  29.0670000
  30.9850000   6.4420000  28.6830000  32.0160000   5.5560000  30.3600000
  30.2390000   7.5050000  28.2370000  29.2970000   9.3650000  28.7060000
  31.2440000   5.6410000  28.0100000  29.9400000   7.5370000  27.2050000
  32.4100000   7.2580000  49.9660000  33.1460000   6.2080000  50.5350000
  32.0110000   8.3000000  50.8550000  32.0320000   7.3200000  48.5590000
  33.4480000   6.2140000  51.9110000  33.4760000   5.3940000  49.9150000
  32.2720000   8.2750000  52.2530000  31.2730000   9.3420000  50.2920000
  31.3010000   8.3880000  48.0590000  32.4610000   6.2640000  47.6890000
  32.9900000   7.2060000  52.7160000  34.0560000   5.4160000  52.3370000
  31.9200000   9.0430000  52.9230000  30.9630000   9.4310000  48.9620000
  30.9150000  10.1380000  50.9460000  30.9490000   8.4010000  46.6740000
  32.1020000   6.2460000  46.3290000  33.0700000   5.4690000  48.0820000
  33.2000000   7.1520000  53.7650000  30.4530000  10.3170000  48.5960000
  31.3480000   7.3570000  45.8510000  30.2070000   9.4640000  46.1330000
  32.3920000   5.4270000  45.6750000  30.9430000   7.3830000  44.4290000
  29.8460000   9.5040000  44.8170000  29.9060000  10.2670000  46.7820000
  30.1860000   8.4480000  43.9220000  31.2930000   6.3800000  43.5430000
  29.2760000  10.3490000  44.4530000  29.7700000   8.5280000  42.5820000
  30.8760000   6.4420000  42.1980000  31.9070000   5.5560000  43.8750000
  30.1300000   7.5050000  41.7520000  29.1880000   9.3650000  42.2210000
  31.1350000   5.6410000  41.5250000  29.8310000   7.5370000  40.7190000
  32.7350000  13.4120000   9.4220000  33.4720000  12.3620000   9.9910000
  32.3360000  14.4540000  10.3120000  32.3570000  13.4740000   8.0150000
  33.7740000  12.3680000  11.3670000  33.8020000  11.5480000   9.3710000
  32.5970000  14.4290000  11.7090000  31.5990000  15.4960000   9.7480000
  31.6270000  14.5420000   7.5150000  32.7870000  12.4180000   7.1450000
  33.3150000  13.3600000  12.1730000  34.3820000  11.5700000  11.7930000
  32.2460000  15.1970000  12.3790000  31.2890000  15.5850000   8.4180000
  31.2410000  16.2920000  10.4020000  31.2740000  14.5550000   6.1300000
  32.4280000  12.4000000   5.7860000  33.3960000  11.6230000   7.5380000
  33.5260000  13.3060000  13.2210000  30.7790000  16.4710000   8.0520000
  31.6730000  13.5110000   5.3070000  30.5320000  15.6180000   5.5900000
  32.7180000  11.5810000   5.1310000  31.2680000  13.5370000   3.8850000
  30.1710000  15.6580000   4.2730000  30.2310000  16.4210000   6.2380000
  30.5120000  14.6020000   3.3790000  31.6180000  12.5340000   2.9990000
  29.6010000  16.5030000   3.9100000  30.0950000  14.6820000   2.0380000
  31.2020000  12.5960000   1.6540000  32.2330000  11.7100000   3.3310000
  30.4560000  13.6590000   1.2080000  29.5140000  15.5190000   1.6770000
  31.4610000  11.7950000   0.9810000  30.1570000  13.6910000   0.1760000
  32.6270000  13.4120000  22.9370000  33.3630000  12.3620000  23.5060000
  32.2280000  14.4540000  23.8260000  32.2490000  13.4740000  21.5300000
  33.6650000  12.3680000  24.8820000  33.6930000  11.5480000  22.8860000
  32.4890000  14.4290000  25.2240000  31.4900000  15.4960000  23.2630000
  31.5180000  14.5420000  21.0300000  32.6780000  12.4180000  20.6600000
  33.2070000  13.3600000  25.6870000  34.2730000  11.5700000  25.3070000
  32.1370000  15.1970000  25.8940000  31.1800000  15.5850000  21.9330000
  31.1320000  16.2920000  23.9170000  31.1660000  14.5550000  19.6450000
  32.3190000  12.4000000  19.3000000  33.2870000  11.6230000  21.0530000
  33.4170000  13.3060000  26.7360000  30.6700000  16.4710000  21.5670000
  31.5650000  13.5110000  18.8220000  30.4240000  15.6180000  19.1040000
  32.6090000  11.5810000  18.6460000  31.1600000  13.5370000  17.4000000
  30.0630000  15.6580000  17.7880000  30.1230000  16.4210000  19.7530000
  30.4030000  14.6020000  16.8930000  31.5100000  12.5340000  16.5130000
  29.4930000  16.5030000  17.4240000  29.9870000  14.6820000  15.5530000
  31.0930000  12.5960000  15.1690000  32.1240000  11.7100000  16.8460000
  30.3470000  13.6590000  14.7230000  29.4050000  15.5190000  15.1920000
  31.3520000  11.7950000  14.4960000  30.0480000  13.6910000  13.6900000
  32.5180000  13.4120000  36.4510000  33.2550000  12.3620000  37.0200000
  32.1190000  14.4540000  37.3410000  32.1400000  13.4740000  35.0450000
  33.5570000  12.3680000  38.3960000  33.5850000  11.5480000  36.4000000
  32.3800000  14.4290000  38.7380000  31.3820000  15.4960000  36.7770000
  31.4100000  14.5420000  34.5450000  32.5700000  12.4180000  34.1740000
  33.0980000  13.3600000  39.2020000  34.1650000  11.5700000  38.8220000
  32.0290000  15.1970000  39.4080000  31.0720000  15.5850000  35.4470000
  31.0240000  16.2920000  37.4310000  31.0570000  14.5550000  33.1590000
  32.2110000  12.4000000  32.8150000  33.1790000  11.6230000  34.5680000
  33.3090000  13.3060000  40.2500000  30.5620000  16.4710000  35.0810000
  31.4560000  13.5110000  32.3360000  30.3150000  15.6180000  32.6190000
  32.5010000  11.5810000  32.1610000  31.0510000  13.5370000  30.9150000
  29.9540000  15.6580000  31.3020000  30.0140000  16.4210000  33.2670000
  30.2950000  14.6020000  30.4080000  31.4010000  12.5340000  30.0280000
  29.3840000  16.5030000  30.9390000  29.8780000  14.6820000  29.0670000
  30.9850000  12.5960000  28.6830000  32.0160000  11.7100000  30.3600000
  30.2390000  13.6590000  28.2370000  29.2970000  15.5190000  28.7060000
  31.2440000  11.7950000  28.0100000  29.9400000  13.6910000  27.2050000
  32.4100000  13.4120000  49.9660000  33.1460000  12.3620000  50.5350000
  32.0110000  14.4540000  50.8550000  32.0320000  13.4740000  48.5590000
  33.4480000  12.3680000  51.9110000  33.4760000  11.5480000  49.9150000
  32.2720000  14.4290000  52.2530000  31.2730000  15.4960000  50.2920000
  31.3010000  14.5420000  48.0590000  32.4610000  12.4180000  47.6890000
  32.9900000  13.3600000  52.7160000  34.0560000  11.5700000  52.3370000
  31.9200000  15.1970000  52.9230000  30.9630000  15.5850000  48.9620000
  30.9150000  16.2920000  50.9460000  30.9490000  14.5550000  46.6740000
  32.1020000  12.4000000  46.3290000  33.0700000  11.6230000  48.0820000
  33.2000000  13.3060000  53.7650000  30.4530000  16.4710000  48.5960000
  31.3480000  13.5110000  45.8510000  30.2070000  15.6180000  46.1330000
  32.3920000  11.5810000  45.6750000  30.9430000  13.5370000  44.4290000
  29.8460000  15.6580000  44.8170000  29.9060000  16.4210000  46.7820000
  30.1860000  14.6020000  43.9220000  31.2930000  12.5340000  43.5430000
  29.2760000  16.5030000  44.4530000  29.7700000  14.6820000  42.5820000
  30.8760000  12.5960000  42.1980000  31.9070000  11.7100000  43.8750000
  30.1300000  13.6590000  41.7520000  29.1880000  15.5190000  42.2210000
  31.1350000  11.7950000  41.5250000  29.8310000  13.6910000  40.7190000
  32.7350000  19.5660000   9.4220000  33.4720000  18.5160000   9.9910000
  32.3360000  20.6080000  10.3120000  32.3570000  19.6280000   8.0150000
  33.7740000  18.5220000  11.3670000  33.8020000  17.7020000   9.3710000
  32.5970000  20.5830000  11.7090000  31.5990000  21.6500000   9.7480000
  31.6270000  20.6960000   7.5150000  32.7870000  18.5720000   7.1450000
  33.3150000  19.5140000  12.1730000  34.3820000  17.7240000  11.7930000
  32.2460000  21.3510000  12.3790000  31.2890000  21.7390000   8.4180000
  31.2410000  22.4460000  10.4020000  31.2740000  20.7090000   6.1300000
  32.4280000  18.5540000   5.7860000  33.3960000  17.7770000   7.5380000
  33.5260000  19.4600000  13.2210000  30.7790000  22.6250000   8.0520000
  31.6730000  19.6650000   5.3070000  30.5320000  21.7720000   5.5900000
  32.7180000  17.7350000   5.1310000  31.2680000  19.6910000   3.8850000
  30.1710000  21.8120000   4.2730000  30.2310000  22.5750000   6.2380000
  30.5120000  20.7560000   3.3790000  31.6180000  18.6880000   2.9990000
  29.6010000  22.6570000   3.9100000  30.0950000  20.8360000   2.0380000
  31.2020000  18.7500000   1.6540000  32.2330000  17.8640000   3.3310000
  30.4560000  19.8130000   1.2080000  29.5140000  21.6730000   1.6770000
  31.4610000  17.9490000   0.9810000  30.1570000  19.8450000   0.1760000
  32.6270000  19.5660000  22.9370000  33.3630000  18.5160000  23.5060000
  32.2280000  20.6080000  23.8260000  32.2490000  19.6280000  21.5300000
  33.6650000  18.5220000  24.8820000  33.6930000  17.7020000  22.8860000
  32.4890000  20.5830000  25.2240000  31.4900000  21.6500000  23.2630000
  31.5180000  20.6960000  21.0300000  32.6780000  18.5720000  20.6600000
  33.2070000  19.5140000  25.6870000  34.2730000  17.7240000  25.3070000
  32.1370000  21.3510000  25.8940000  31.1800000  21.7390000  21.9330000
  31.1320000  22.4460000  23.9170000  31.1660000  20.7090000  19.6450000
  32.3190000  18.5540000  19.3000000  33.2870000  17.7770000  21.0530000
  33.4170000  19.4600000  26.7360000  30.6700000  22.6250000  21.5670000
  31.5650000  19.6650000  18.8220000  30.4240000  21.7720000  19.1040000
  32.6090000  17.7350000  18.6460000  31.1600000  19.6910000  17.4000000
  30.0630000  21.8120000  17.7880000  30.1230000  22.5750000  19.7530000
  30.4030000  20.7560000  16.8930000  31.5100000  18.6880000  16.5130000
  29.4930000  22.6570000  17.4240000  29.9870000  20.8360000  15.5530000
  31.0930000  18.7500000  15.1690000  32.1240000  17.8640000  16.8460000
  30.3470000  19.8130000  14.7230000  29.4050000  21.6730000  15.1920000
  31.3520000  17.9490000  14.4960000  30.0480000  19.8450000  13.6900000
  32.5180000  19.5660000  36.4510000  33.2550000  18.5160000  37.0200000
  32.1190000  20.6080000  37.3410000  32.1400000  19.6280000  35.0450000
  33.5570000  18.5220000  38.3960000  33.5850000  17.7020000  36.4000000
  32.3800000  20.5830000  38.7380000  31.3820000  21.6500000  36.7770000
  31.4100000  20.6960000  34.5450000  32.5700000  18.5720000  34.1740000
  33.0980000  19.5140000  39.2020000  34.1650000  17.7240000  38.8220000
  32.0290000  21.3510000  39.4080000  31.0720000  21.7390000  35.4470000
  31.0240000  22.4460000  37.4310000  31.0570000  20.7090000  33.1590000
  32.2110000  18.5540000  32.8150000  33.1790000  17.7770000  34.5680000
  33.3090000  19.4600000  40.2500000  30.5620000  22.6250000  35.0810000
  31.4560000  19.6650000  32.3360000  30.3150000  21.7720000  32.6190000
  32.5010000  17.7350000  32.1610000  31.0510000  19.6910000  30.9150000
  29.9540000  21.8120000  31.3020000  30.0140000  22.5750000  33.2670000
  30.2950000  20.7560000  30.4080000  31.4010000  18.6880000  30.0280000
  29.3840000  22.6570000  30.9390000  29.8780000  20.8360000  29.0670000
  30.9850000  18.7500000  28.6830000  32.0160000  17.8640000  30.3600000
  30.2390000  19.8130000  28.2370000  29.2970000  21.6730000  28.7060000
  31.2440000  17.9490000  28.0100000  29.9400000  19.8450000  27.2050000
  32.4100000  19.5660000  49.9660000  33.1460000  18.5160000  50.5350000
  32.0110000  20.6080000  50.8550000  32.0320000  19.6280000  48.5590000
  33.4480000  18.5220000  51.9110000  33.4760000  17.7020000  49.9150000
  32.2720000  20.5830000  52.2530000  31.2730000  21.6500000  50.2920000
  31.3010000  20.6960000  48.0590000  32.4610000  18.5720000  47.6890000
  32.9900000  19.5140000  52.7160000  34.0560000  17.7240000  52.3370000
  31.9200000  21.3510000  52.9230000  30.9630000  21.7390000  48.9620000
  30.9150000  22.4460000  50.9460000  30.9490000  20.7090000  46.6740000
  32.1020000  18.5540000  46.3290000  33.0700000  17.7770000  48.0820000
  33.2000000  19.4600000  53.7650000  30.4530000  22.6250000  48.5960000
  31.3480000  19.6650000  45.8510000  30.2070000  21.7720000  46.1330000
  32.3920000  17.7350000  45.6750000  30.9430000  19.6910000  44.4290000
  29.8460000  21.8120000  44.8170000  29.9060000  22.5750000  46.7820000
  30.1860000  20.7560000  43.9220000  31.2930000  18.6880000  43.5430000
  29.2760000  22.6570000  44.4530000  29.7700000  20.8360000  42.5820000
  30.8760000  18.7500000  42.1980000  31.9070000  17.8640000  43.8750000
  30.1300000  19.8130000  41.7520000  29.1880000  21.6730000  42.2210000
  31.1350000  17.9490000  41.5250000  29.8310000  19.8450000  40.7190000
  32.7350000  25.7200000   9.4220000  33.4720000  24.6700000   9.9910000
  32.3360000  26.7620000  10.3120000  32.3570000  25.7820000   8.0150000
  33.7740000  24.6760000  11.3670000  33.8020000  23.8560000   9.3710000
  32.5970000  26.7370000  11.7090000  31.5990000  27.8040000   9.7480000
  31.6270000  26.8500000   7.5150000  32.7870000  24.7260000   7.1450000
  33.3150000  25.6680000  12.1730000  34.3820000  23.8780000  11.7930000
  32.2460000  27.5050000  12.3790000  31.2890000  27.8930000   8.4180000
  31.2410000  28.6000000  10.4020000  31.2740000  26.8630000   6.1300000
  32.4280000  24.7080000   5.7860000  33.3960000  23.9310000   7.5380000
  33.5260000  25.6140000  13.2210000  30.7790000  28.7790000   8.0520000
  31.6730000  25.8190000   5.3070000  30.5320000  27.9260000   5.5900000
  32.7180000  23.8890000   5.1310000  31.2680000  25.8450000   3.8850000
  30.1710000  27.9660000   4.2730000  30.2310000  28.7290000   6.2380000
  30.5120000  26.9100000   3.3790000  31.6180000  24.8420000   2.9990000
  29.6010000  28.8110000   3.9100000  30.0950000  26.9900000   2.0380000
  31.2020000  24.9040000   1.6540000  32.2330000  24.0180000   3.3310000
  30.4560000  25.9670000   1.2080000  29.5140000  27.8270000   1.6770000
  31.4610000  24.1030000   0.9810000  30.1570000  25.9990000   0.1760000
  32.6270000  25.7200000  22.9370000  33.3630000  24.6700000  23.5060000
  32.2280000  26.7620000  23.8260000  32.2490000  25.7820000  21.5300000
  33.6650000  24.6760000  24.8820000  33.6930000  23.8560000  22.8860000
  32.4890000  26.7370000  25.2240000  31.4900000  27.8040000  23.2630000
  31.5180000  26.8500000  21.0300000  32.6780000  24.7260000  20.6600000
  33.2070000  25.6680000  25.6870000  34.2730000  23.8780000  25.3070000
  32.1370000  27.5050000  25.8940000  31.1800000  27.8930000  21.9330000
  31.1320000  28.6000000  23.9170000  31.1660000  26.8630000  19.6450000
  32.3190000  24.7080000  19.3000000  33.2870000  23.9310000  21.0530000
  33.4170000  25.6140000  26.7360000  30.6700000  28.7790000  21.5670000
  31.5650000  25.8190000  18.8220000  30.4240000  27.9260000  19.1040000
  32.6090000  23.8890000  18.6460000  31.1600000  25.8450000  17.4000000
  30.0630000  27.9660000  17.7880000  30.1230000  28.7290000  19.7530000
  30.4030000  26.9100000  16.8930000  31.5100000  24.8420000  16.5130000
  29.4930000  28.8110000  17.4240000  29.9870000  26.9900000  15.5530000
  31.0930000  24.9040000  15.1690000  32.1240000  24.0180000  16.8460000
  30.3470000  25.9670000  14.7230000  29.4050000  27.8270000  15.1920000
  31.3520000  24.1030000  14.4960000  30.0480000  25.9990000  13.6900000
  32.5180000  25.7200000  36.4510000  33.2550000  24.6700000  37.0200000
  32.1190000  26.7620000  37.3410000  32.1400000  25.7820000  35.0450000
  33.5570000  24.6760000  38.3960000  33.5850000  23.8560000  36.4000000
  32.3800000  26.7370000  38.7380000  31.3820000  27.8040000  36.7770000
  31.4100000  26.8500000  34.5450000  32.5700000  24.7260000  34.1740000
  33.0980000  25.6680000  39.2020000  34.1650000  23.8780000  38.8220000
  32.0290000  27.5050000  39.4080000  31.0720000  27.8930000  35.4470000
  31.0240000  28.6000000  37.4310000  31.0570000  26.8630000  33.1590000
  32.2110000  24.7080000  32.8150000  33.1790000  23.9310000  34.5680000
  33.3090000  25.6140000  40.2500000  30.5620000  28.7790000  35.0810000
  31.4560000  25.8190000  32.3360000  30.3150000  27.9260000  32.6190000
  32.5010000  23.8890000  32.1610000  31.0510000  25.8450000  30.9150000
  29.9540000  27.9660000  31.3020000  30.0140000  28.7290000  33.2670000
  30.2950000  26.9100000  30.4080000  31.4010000  24.8420000  30.0280000
  29.3840000  28.8110000  30.9390000  29.8780000  26.9900000  29.0670000
  30.9850000  24.9040000  28.6830000  32.0160000  24.0180000  30.3600000
  30.2390000  25.9670000  28.2370000  29.2970000  27.8270000  28.7060000
  31.2440000  24.1030000  28.0100000  29.9400000  25.9990000  27.2050000
  32.4100000  25.7200000  49.9660000  33.1460000  24.6700000  50.5350000
  32.0110000  26.7620000  50.8550000  32.0320000  25.7820000  48.5590000
  33.4480000  24.6760000  51.9110000  33.4760000  23.8560000  49.9150000
  32.2720000  26.7370000  52.2530000  31.2730000  27.8040000  50.2920000
  31.3010000  26.8500000  48.0590000  32.4610000  24.7260000  47.6890000
  32.9900000  25.6680000  52.7160000  34.0560000  23.8780000  52.3370000
  31.9200000  27.5050000  52.9230000  30.9630000  27.8930000  48.9620000
  30.9150000  28.6000000  50.9460000  30.9490000  26.8630000  46.6740000
  32.1020000  24.7080000  46.3290000  33.0700000  23.9310000  48.0820000
  33.2000000  25.6140000  53.7650000  30.4530000  28.7790000  48.5960000
  31.3480000  25.8190000  45.8510000  30.2070000  27.9260000  46.1330000
  32.3920000  23.8890000  45.6750000  30.9430000  25.8450000  44.4290000
  29.8460000  27.9660000  44.8170000  29.9060000  28.7290000  46.7820000
  30.1860000  26.9100000  43.9220000  31.2930000  24.8420000  43.5430000
  29.2760000  28.8110000  44.4530000  29.7700000  26.9900000  42.5820000
  30.8760000  24.9040000  42.1980000  31.9070000  24.0180000  43.8750000
  30.1300000  25.9670000  41.7520000  29.1880000  27.8270000  42.2210000
  31.1350000  24.1030000  41.5250000  29.8310000  25.9990000  40.7190000
  32.7350000  31.8740000   9.4220000  33.4720000  30.8240000   9.9910000
  32.3360000  32.9160000  10.3120000  32.3570000  31.9360000   8.0150000
  33.7740000  30.8300000  11.3670000  33.8020000  30.0100000   9.3710000
  32.5970000  32.8910000  11.7090000  31.5990000  33.9580000   9.7480000
  31.6270000  33.0040000   7.5150000  32.7870000  30.8800000   7.1450000
  33.3150000  31.8220000  12.1730000  34.3820000  30.0320000  11.7930000
  32.2460000  33.6590000  12.3790000  31.2890000  34.0470000   8.4180000
  31.2410000  34.7540000  10.4020000  31.2740000  33.0170000   6.1300000
  32.4280000  30.8620000   5.7860000  33.3960000  30.0850000   7.5380000
  33.5260000  31.7680000  13.2210000  30.7790000  34.9330000   8.0520000
  31.6730000  31.9730000   5.3070000  30.5320000  34.0800000   5.5900000
  32.7180000  30.0430000   5.1310000  31.2680000  31.9990000   3.8850000
  30.1710000  34.1200000   4.2730000  30.2310000  34.8830000   6.2380000
  30.5120000  33.0640000   3.3790000  31.6180000  30.9960000   2.9990000
  29.6010000  34.9650000   3.9100000  30.0950000  33.1440000   2.0380000
  31.2020000  31.0580000   1.6540000  32.2330000  30.1720000   3.3310000
  30.4560000  32.1210000   1.2080000  29.5140000  33.9810000   1.6770000
  31.4610000  30.2570000   0.9810000  30.1570000  32.1530000   0.1760000
  32.6270000  31.8740000  22.9370000  33.3630000  30.8240000  23.5060000
  32.2280000  32.9160000  23.8260000  32.2490000  31.9360000  21.5300000
  33.6650000  30.8300000  24.8820000  33.6930000  30.0100000  22.8860000
  32.4890000  32.8910000  25.2240000  31.4900000  33.9580000  23.2630000
  31.5180000  33.0040000  21.0300000  32.6780000  30.8800000  20.6600000
  33.2070000  31.8220000  25.6870000  34.2730000  30.0320000  25.3070000
  32.1370000  33.6590000  25.8940000  31.1800000  34.0470000  21.9330000
  31.1320000  34.7540000  23.9170000  31.1660000  33.0170000  19.6450000
  32.3190000  30.8620000  19.3000000  33.2870000  30.0850000  21.0530000
  33.4170000  31.7680000  26.7360000  30.6700000  34.9330000  21.5670000
  31.5650000  31.9730000  18.8220000  30.4240000  34.0800000  19.1040000
  32.6090000  30.0430000  18.6460000  31.1600000  31.9990000  17.4000000
  30.0630000  34.1200000  17.7880000  30.1230000  34.8830000  19.7530000
  30.4030000  33.0640000  16.8930000  31.5100000  30.9960000  16.5130000
  29.4930000  34.9650000  17.4240000  29.9870000  33.1440000  15.5530000
  31.0930000  31.0580000  15.1690000  32.1240000  30.1720000  16.8460000
  30.3470000  32.1210000  14.7230000  29.4050000  33.9810000  15.1920000
  31.3520000  30.2570000  14.4960000  30.0480000  32.1530000  13.6900000
  32.5180000  31.8740000  36.4510000  33.2550000  30.8240000  37.0200000
  32.1190000  32.9160000  37.3410000  32.1400000  31.9360000  35.0450000
  33.5570000  30.8300000  38.3960000  33.5850000  30.0100000  36.4000000
  32.3800000  32.8910000  38.7380000  31.3820000  33.9580000  36.7770000
  31.4100000  33.0040000  34.5450000  32.5700000  30.8800000  34.1740000
  33.0980000  31.8220000  39.2020000  34.1650000  30.0320000  38.8220000
  32.0290000  33.6590000  39.4080000  31.0720000  34.0470000  35.4470000
  31.0240000  34.7540000  37.4310000  31.0570000  33.0170000  33.1590000
  32.2110000  30.8620000  32.8150000  33.1790000  30.0850000  34.5680000
  33.3090000  31.7680000  40.2500000  30.5620000  34.9330000  35.0810000
  31.4560000  31.9730000  32.3360000  30.3150000  34.0800000  32.6190000
  32.5010000  30.0430000  32.1610000  31.0510000  31.9990000  30.9150000
  29.9540000  34.1200000  31.3020000  30.0140000  34.8830000  33.2670000
  30.2950000  33.0640000  30.4080000  31.4010000  30.9960000  30.0280000
  29.3840000  34.9650000  30.9390000  29.8780000  33.1440000  29.0670000
  30.9850000  31.0580000  28.6830000  32.0160000  30.1720000  30.3600000
  30.2390000  32.1210000  28.2370000  29.2970000  33.9810000  28.7060000
  31.2440000  30.2570000  28.0100000  29.9400000  32.1530000  27.2050000
  32.4100000  31.8740000  49.9660000  33.1460000  30.8240000  50.5350000
  32.0110000  32.9160000  50.8550000  32.0320000  31.9360000  48.5590000
  33.4480000  30.8300000  51.9110000  33.4760000  30.0100000  49.9150000
  32.2720000  32.8910000  52.2530000  31.2730000  33.9580000  50.2920000
  31.3010000  33.0040000  48.0590000  32.4610000  30.8800000  47.6890000
  32.9900000  31.8220000  52.7160000  34.0560000  30.0320000  52.3370000
  31.9200000  33.6590000  52.9230000  30.9630000  34.0470000  48.9620000
  30.9150000  34.7540000  50.9460000  30.9490000  33.0170000  46.6740000
  32.1020000  30.8620000  46.3290000  33.0700000  30.0850000  48.0820000
  33.2000000  31.7680000  53.7650000  30.4530000  34.9330000  48.5960000
  31.3480000  31.9730000  45.8510000  30.2070000  34.0800000  46.1330000
  32.3920000  30.0430000  45.6750000  30.9430000  31.9990000  44.4290000
  29.8460000  34.1200000  44.8170000  29.9060000  34.8830000  46.7820000
  30.1860000  33.0640000  43.9220000  31.2930000  30.9960000  43.5430000
  29.2760000  34.9650000  44.4530000  29.7700000  33.1440000  42.5820000
  30.8760000  31.0580000  42.1980000  31.9070000  30.1720000  43.8750000
  30.1300000  32.1210000  41.7520000  29.1880000  33.9810000  42.2210000
  31.1350000  30.2570000  41.5250000  29.8310000  32.1530000  40.7190000
  32.7350000   1.1040000   9.4220000  33.4720000   0.0540000   9.9910000
  32.3360000   2.1460000  10.3120000  32.3570000   1.1660000   8.0150000
  33.7740000   0.0600000  11.3670000  33.8020000  -0.7600000   9.3710000
  32.5970000   2.1210000  11.7090000  31.5990000   3.1880000   9.7480000
  31.6270000   2.2340000   7.5150000  32.7870000   0.1100000   7.1450000
  33.3150000   1.0520000  12.1730000  34.3820000  -0.7380000  11.7930000
  32.2460000   2.8890000  12.3790000  31.2890000   3.2770000   8.4180000
  31.2410000   3.9840000  10.4020000  31.2740000   2.2470000   6.1300000
  32.4280000   0.0920000   5.7860000  33.3960000  -0.6850000   7.5380000
  33.5260000   0.9980000  13.2210000  30.7790000   4.1630000   8.0520000
  31.6730000   1.2030000   5.3070000  30.5320000   3.3100000   5.5900000
  32.7180000  -0.7270000   5.1310000  31.2680000   1.2290000   3.8850000
  30.1710000   3.3500000   4.2730000  30.2310000   4.1130000   6.2380000
  30.5120000   2.2940000   3.3790000  31.6180000   0.2260000   2.9990000
  29.6010000   4.1950000   3.9100000  30.0950000   2.3740000   2.0380000
  31.2020000   0.2880000   1.6540000  32.2330000  -0.5980000   3.3310000
  30.4560000   1.3510000   1.2080000  29.5140000   3.2110000   1.6770000
  31.4610000  -0.5130000   0.9810000  30.1570000   1.3830000   0.1760000
  32.6270000   1.1040000  22.9370000  33.3630000   0.0540000  23.5060000
  32.2280000   2.1460000  23.8260000  32.2490000   1.1660000  21.5300000
  33.6650000   0.0600000  24.8820000  33.6930000  -0.7600000  22.8860000
  32.4890000   2.1210000  25.2240000  31.4900000   3.1880000  23.2630000
  31.5180000   2.2340000  21.0300000  32.6780000   0.1100000  20.6600000
  33.2070000   1.0520000  25.6870000  34.2730000  -0.7380000  25.3070000
  32.1370000   2.8890000  25.8940000  31.1800000   3.2770000  21.9330000
  31.1320000   3.9840000  23.9170000  31.1660000   2.2470000  19.6450000
  32.3190000   0.0920000  19.3000000  33.2870000  -0.6850000  21.0530000
  33.4170000   0.9980000  26.7360000  30.6700000   4.1630000  21.5670000
  31.5650000   1.2030000  18.8220000  30.4240000   3.3100000  19.1040000
  32.6090000  -0.7270000  18.6460000  31.1600000   1.2290000  17.4000000
  30.0630000   3.3500000  17.7880000  30.1230000   4.1130000  19.7530000
  30.4030000   2.2940000  16.8930000  31.5100000   0.2260000  16.5130000
  29.4930000   4.1950000  17.4240000  29.9870000   2.3740000  15.5530000
  31.0930000   0.2880000  15.1690000  32.1240000  -0.5980000  16.8460000
  30.3470000   1.3510000  14.7230000  29.4050000   3.2110000  15.1920000
  31.3520000  -0.5130000  14.4960000  30.0480000   1.3830000  13.6900000
  32.5180000   1.1040000  36.4510000  33.2550000   0.0540000  37.0200000
  32.1190000   2.1460000  37.3410000  32.1400000   1.1660000  35.0450000
  33.5570000   0.0600000  38.3960000  33.5850000  -0.7600000  36.4000000
  32.3800000   2.1210000  38.7380000  31.3820000   3.1880000  36.7770000
  31.4100000   2.2340000  34.5450000  32.5700000   0.1100000  34.1740000
  33.0980000   1.0520000  39.2020000  34.1650000  -0.7380000  38.8220000
  32.0290000   2.8890000  39.4080000  31.0720000   3.2770000  35.4470000
  31.0240000   3.9840000  37.4310000  31.0570000   2.2470000  33.1590000
  32.2110000   0.0920000  32.8150000  33.1790000  -0.6850000  34.5680000
  33.3090000   0.9980000  40.2500000  30.5620000   4.1630000  35.0810000
  31.4560000   1.2030000  32.3360000  30.3150000   3.3100000  32.6190000
  32.5010000  -0.7270000  32.1610000  31.0510000   1.2290000  30.9150000
  29.9540000   3.3500000  31.3020000  30.0140000   4.1130000  33.2670000
  30.2950000   2.2940000  30.4080000  31.4010000   0.2260000  30.0280000
  29.3840000   4.1950000  30.9390000  29.8780000   2.3740000  29.0670000
  30.9850000   0.2880000  28.6830000  32.0160000  -0.5980000  30.3600000
  30.2390000   1.3510000  28.2370000  29.2970000   3.2110000  28.7060000
  31.2440000  -0.5130000  28.0100000  29.9400000   1.3830000  27.2050000
  32.4100000   1.1040000  49.9660000  33.1460000   0.0540000  50.5350000
  32.0110000   2.1460000  50.8550000  32.0320000   1.1660000  48.5590000
  33.4480000   0.0600000  51.9110000  33.4760000  -0.7600000  49.9150000
  32.2720000   2.1210000  52.2530000  31.2730000   3.1880000  50.2920000
  31.3010000   2.2340000  48.0590000  32.4610000   0.1100000  47.6890000
  32.9900000   1.0520000  52.7160000  34.0560000  -0.7380000  52.3370000
  31.9200000   2.8890000  52.9230000  30.9630000   3.2770000  48.9620000
  30.9150000   3.9840000  50.9460000  30.9490000   2.2470000  46.6740000
  32.1020000   0.0920000  46.3290000  33.0700000  -0.6850000  48.0820000
  33.2000000   0.9980000  53.7650000  30.4530000   4.1630000  48.5960000
  31.3480000   1.2030000  45.8510000  30.2070000   3.3100000  46.1330000
  32.3920000  -0.7270000  45.6750000  30.9430000   1.2290000  44.4290000
  29.8460000   3.3500000  44.8170000  29.9060000   4.1130000  46.7820000
  30.1860000   2.2940000  43.9220000  31.2930000   0.2260000  43.5430000
  29.2760000   4.1950000  44.4530000  29.7700000   2.3740000  42.5820000
  30.8760000   0.2880000  42.1980000  31.9070000  -0.5980000  43.8750000
  30.1300000   1.3510000  41.7520000  29.1880000   3.2110000  42.2210000
  31.1350000  -0.5130000  41.5250000  29.8310000   1.3830000  40.7190000
  32.7350000  38.0280000   9.4220000  33.4720000  36.9780000   9.9910000
  32.3360000  39.0700000  10.3120000  32.3570000  38.0900000   8.0150000
  33.7740000  36.9840000  11.3670000  33.8020000  36.1640000   9.3710000
  32.5970000  39.0450000  11.7090000  31.5990000  40.1120000   9.7480000
  31.6270000  39.1580000   7.5150000  32.7870000  37.0340000   7.1450000
  33.3150000  37.9760000  12.1730000  34.3820000  36.1860000  11.7930000
  32.2460000  39.8130000  12.3790000  31.2890000  40.2010000   8.4180000
  31.2410000  40.9080000  10.4020000  31.2740000  39.1710000   6.1300000
  32.4280000  37.0160000   5.7860000  33.3960000  36.2390000   7.5380000
  33.5260000  37.9220000  13.2210000  30.7790000  41.0870000   8.0520000
  31.6730000  38.1270000   5.3070000  30.5320000  40.2340000   5.5900000
  32.7180000  36.1970000   5.1310000  31.2680000  38.1530000   3.8850000
  30.1710000  40.2740000   4.2730000  30.2310000  41.0370000   6.2380000
  30.5120000  39.2180000   3.3790000  31.6180000  37.1500000   2.9990000
  29.6010000  41.1190000   3.9100000  30.0950000  39.2980000   2.0380000
  31.2020000  37.2120000   1.6540000  32.2330000  36.3260000   3.3310000
  30.4560000  38.2750000   1.2080000  29.5140000  40.1350000   1.6770000
  31.4610000  36.4110000   0.9810000  30.1570000  38.3070000   0.1760000
  32.6270000  38.0280000  22.9370000  33.3630000  36.9780000  23.5060000
  32.2280000  39.0700000  23.8260000  32.2490000  38.0900000  21.5300000
  33.6650000  36.9840000  24.8820000  33.6930000  36.1640000  22.8860000
  32.4890000  39.0450000  25.2240000  31.4900000  40.1120000  23.2630000
  31.5180000  39.1580000  21.0300000  32.6780000  37.0340000  20.6600000
  33.2070000  37.9760000  25.6870000  34.2730000  36.1860000  25.3070000
  32.1370000  39.8130000  25.8940000  31.1800000  40.2010000  21.9330000
  31.1320000  40.9080000  23.9170000  31.1660000  39.1710000  19.6450000
  32.3190000  37.0160000  19.3000000  33.2870000  36.2390000  21.0530000
  33.4170000  37.9220000  26.7360000  30.6700000  41.0870000  21.5670000
  31.5650000  38.1270000  18.8220000  30.4240000  40.2340000  19.1040000
  32.6090000  36.1970000  18.6460000  31.1600000  38.1530000  17.4000000
  30.0630000  40.2740000  17.7880000  30.1230000  41.0370000  19.7530000
  30.4030000  39.2180000  16.8930000  31.5100000  37.1500000  16.5130000
  29.4930000  41.1190000  17.4240000  29.9870000  39.2980000  15.5530000
  31.0930000  37.2120000  15.1690000  32.1240000  36.3260000  16.8460000
  30.3470000  38.2750000  14.7230000  29.4050000  40.1350000  15.1920000
  31.3520000  36.4110000  14.4960000  30.0480000  38.3070000  13.6900000
  32.5180000  38.0280000  36.4510000  33.2550000  36.9780000  37.0200000
  32.1190000  39.0700000  37.3410000  32.1400000  38.0900000  35.0450000
  33.5570000  36.9840000  38.3960000  33.5850000  36.1640000  36.4000000
  32.3800000  39.0450000  38.7380000  31.3820000  40.1120000  36.7770000
  31.4100000  39.1580000  34.5450000  32.5700000  37.0340000  34.1740000
  33.0980000  37.9760000  39.2020000  34.1650000  36.1860000  38.8220000
  32.0290000  39.8130000  39.4080000  31.0720000  40.2010000  35.4470000
  31.0240000  40.9080000  37.4310000  31.0570000  39.1710000  33.1590000
  32.2110000  37.0160000  32.8150000  33.1790000  36.2390000  34.5680000
  33.3090000  37.9220000  40.2500000  30.5620000  41.0870000  35.0810000
  31.4560000  38.1270000  32.3360000  30.3150000  40.2340000  32.6190000
  32.5010000  36.1970000  32.1610000  31.0510000  38.1530000  30.9150000
  29.9540000  40.2740000  31.3020000  30.0140000  41.0370000  33.2670000
  30.2950000  39.2180000  30.4080000  31.4010000  37.1500000  30.0280000
  29.3840000  41.1190000  30.9390000  29.8780000  39.2980000  29.0670000
  30.9850000  37.2120000  28.6830000  32.0160000  36.3260000  30.3600000
  30.2390000  38.2750000  28.2370000  29.2970000  40.1350000  28.7060000
  31.2440000  36.4110000  28.0100000  29.9400000  38.3070000  27.2050000
  32.4100000  38.0280000  49.9660000  33.1460000  36.9780000  50.5350000
  32.0110000  39.0700000  50.8550000  32.0320000  38.0900000  48.5590000
  33.4480000  36.9840000  51.9110000  33.4760000  36.1640000  49.9150000
  32.2720000  39.0450000  52.2530000  31.2730000  40.1120000  50.2920000
  31.3010000  39.1580000  48.0590000  32.4610000  37.0340000  47.6890000
  32.9900000  37.9760000  52.7160000  34.0560000  36.1860000  52.3370000
  31.9200000  39.8130000  52.9230000  30.9630000  40.2010000  48.9620000
  30.9150000  40.9080000  50.9460000  30.9490000  39.1710000  46.6740000
  32.1020000  37.0160000  46.3290000  33.0700000  36.2390000  48.0820000
  33.2000000  37.9220000  53.7650000  30.4530000  41.0870000  48.5960000
  31.3480000  38.1270000  45.8510000  30.2070000  40.2340000  46.1330000
  32.3920000  36.1970000  45.6750000  30.9430000  38.1530000  44.4290000
  29.8460000  40.2740000  44.8170000  29.9060000  41.0370000  46.7820000
  30.1860000  39.2180000  43.9220000  31.2930000  37.1500000  43.5430000
  29.2760000  41.1190000  44.4530000  29.7700000  39.2980000  42.5820000
  30.8760000  37.2120000  42.1980000  31.9070000  36.3260000  43.8750000
  30.1300000  38.2750000  41.7520000  29.1880000  40.1350000  42.2210000
  31.1350000  36.4110000  41.5250000  29.8310000  38.3070000  40.7190000
  34.9960000  10.3350000   4.0920000  34.2600000   9.2850000   3.5230000
  35.3950000  11.3770000   3.2030000  35.3740000  10.3970000   5.4990000
  33.9580000   9.2910000   2.1470000  33.9300000   8.4710000   4.1440000
  35.1340000  11.3520000   1.8060000  36.1330000  12.4190000   3.7670000
  36.1050000  11.4650000   5.9990000  34.9450000   9.3410000   6.3690000
  34.4160000  10.2830000   1.3420000  33.3500000   8.4930000   1.7220000
  35.4860000  12.1200000   1.1350000  36.4430000  12.5080000   5.0960000
  36.4910000  13.2150000   3.1120000  36.4570000  11.4780000   7.3840000
  35.3040000   9.3230000   7.7290000  34.3360000   8.5460000   5.9760000
  34.2060000  10.2290000   0.2930000  36.9530000  13.3940000   5.4630000
  36.0580000  10.4340000   8.2070000  37.1990000  12.5410000   7.9250000
  35.0140000   8.5040000   8.3830000  36.4630000  10.4600000   9.6290000
  37.5600000  12.5810000   9.2410000  37.5000000  13.3440000   7.2760000
  37.2200000  11.5250000  10.1360000  36.1130000   9.4570000  10.5160000
  38.1300000  13.4260000   9.6050000  37.6360000  11.6050000  11.4770000
  36.5300000   9.5190000  11.8600000  35.4990000   8.6330000  10.1830000
  37.2760000  10.5820000  12.3060000  38.2180000  12.4420000  11.8370000
  36.2710000   8.7180000  12.5330000  37.5750000  10.6140000  13.3390000
  34.7790000  10.3350000  31.1210000  34.0430000   9.2850000  30.5520000
  35.1780000  11.3770000  30.2320000  35.1570000  10.3970000  32.5280000
  33.7410000   9.2910000  29.1770000  33.7130000   8.4710000  31.1730000
  34.9170000  11.3520000  28.8350000  35.9160000  12.4190000  30.7960000
  35.8880000  11.4650000  33.0280000  34.7280000   9.3410000  33.3990000
  34.1990000  10.2830000  28.3710000  33.1330000   8.4930000  28.7510000
  35.2690000  12.1200000  28.1640000  36.2260000  12.5080000  32.1250000
  36.2740000  13.2150000  30.1420000  36.2400000  11.4780000  34.4130000
  35.0870000   9.3230000  34.7580000  34.1190000   8.5460000  33.0050000
  33.9890000  10.2290000  27.3220000  36.7360000  13.3940000  32.4920000
  35.8410000  10.4340000  35.2370000  36.9820000  12.5410000  34.9540000
  34.7970000   8.5040000  35.4120000  36.2460000  10.4600000  36.6580000
  37.3430000  12.5810000  36.2700000  37.2830000  13.3440000  34.3050000
  37.0030000  11.5250000  37.1650000  35.8960000   9.4570000  37.5450000
  37.9130000  13.4260000  36.6340000  37.4190000  11.6050000  38.5060000
  36.3130000   9.5190000  38.8900000  35.2820000   8.6330000  37.2120000
  37.0590000  10.5820000  39.3350000  38.0010000  12.4420000  38.8670000
  36.0540000   8.7180000  39.5630000  37.3580000  10.6140000  40.3680000
  34.6710000  10.3350000  44.6360000  33.9340000   9.2850000  44.0670000
  35.0700000  11.3770000  43.7470000  35.0490000  10.3970000  46.0430000
  33.6320000   9.2910000  42.6910000  33.6040000   8.4710000  44.6870000
  34.8090000  11.3520000  42.3490000  35.8070000  12.4190000  44.3100000
  35.7790000  11.4650000  46.5430000  34.6190000   9.3410000  46.9130000
  34.0910000  10.2830000  41.8860000  33.0240000   8.4930000  42.2650000
  35.1600000  12.1200000  41.6790000  36.1170000  12.5080000  45.6400000
  36.1650000  13.2150000  43.6560000  36.1320000  11.4780000  47.9280000
  34.9780000   9.3230000  48.2730000  34.0100000   8.5460000  46.5200000
  33.8800000  10.2290000  40.8370000  36.6270000  13.3940000  46.0060000
  35.7330000  10.4340000  48.7510000  36.8740000  12.5410000  48.4690000
  34.6880000   8.5040000  48.9270000  36.1370000  10.4600000  50.1730000
  37.2350000  12.5810000  49.7850000  37.1750000  13.3440000  47.8200000
  36.8940000  11.5250000  50.6800000  35.7880000   9.4570000  51.0590000
  37.8050000  13.4260000  50.1480000  37.3110000  11.6050000  52.0200000
  36.2040000   9.5190000  52.4040000  35.1730000   8.6330000  50.7270000
  36.9500000  10.5820000  52.8500000  37.8920000  12.4420000  52.3810000
  35.9450000   8.7180000  53.0770000  37.2490000  10.6140000  53.8830000
  34.5620000  10.3350000  58.1500000  33.8260000   9.2850000  57.5820000
  34.9610000  11.3770000  57.2610000  34.9400000  10.3970000  59.5570000
  33.5240000   9.2910000  56.2060000  33.4960000   8.4710000  58.2020000
  34.7000000  11.3520000  55.8640000  35.6990000  12.4190000  57.8250000
  35.6710000  11.4650000  60.0570000  34.5110000   9.3410000  60.4280000
  33.9820000  10.2830000  55.4000000  32.9160000   8.4930000  55.7800000
  35.0520000  12.1200000  55.1930000  36.0090000  12.5080000  59.1550000
  36.0570000  13.2150000  57.1710000  36.0230000  11.4780000  61.4430000
  34.8700000   9.3230000  61.7870000  33.9020000   8.5460000  60.0340000
  33.7720000  10.2290000  54.3520000  36.5190000  13.3940000  59.5210000
  35.6240000  10.4340000  62.2660000  36.7650000  12.5410000  61.9830000
  34.5800000   8.5040000  62.4410000  36.0290000  10.4600000  63.6870000
  37.1260000  12.5810000  63.3000000  37.0660000  13.3440000  61.3340000
  36.7860000  11.5250000  64.1940000  35.6790000   9.4570000  64.5740000
  37.6960000  13.4260000  63.6630000  37.2020000  11.6050000  65.5350000
  36.0960000   9.5190000  65.9190000  35.0650000   8.6330000  64.2410000
  36.8420000  10.5820000  66.3650000  37.7840000  12.4420000  65.8960000
  35.8370000   8.7180000  66.5920000  37.1410000  10.6140000  67.3970000
  34.9960000   4.1810000   4.0920000  34.2600000   3.1310000   3.5230000
  35.3950000   5.2230000   3.2030000  35.3740000   4.2430000   5.4990000
  33.9580000   3.1370000   2.1470000  33.9300000   2.3170000   4.1440000
  35.1340000   5.1980000   1.8060000  36.1330000   6.2650000   3.7670000
  36.1050000   5.3110000   5.9990000  34.9450000   3.1870000   6.3690000
  34.4160000   4.1290000   1.3420000  33.3500000   2.3390000   1.7220000
  35.4860000   5.9660000   1.1350000  36.4430000   6.3540000   5.0960000
  36.4910000   7.0610000   3.1120000  36.4570000   5.3240000   7.3840000
  35.3040000   3.1690000   7.7290000  34.3360000   2.3920000   5.9760000
  34.2060000   4.0750000   0.2930000  36.9530000   7.2400000   5.4630000
  36.0580000   4.2800000   8.2070000  37.1990000   6.3870000   7.9250000
  35.0140000   2.3500000   8.3830000  36.4630000   4.3060000   9.6290000
  37.5600000   6.4270000   9.2410000  37.5000000   7.1900000   7.2760000
  37.2200000   5.3710000  10.1360000  36.1130000   3.3030000  10.5160000
  38.1300000   7.2720000   9.6050000  37.6360000   5.4510000  11.4770000
  36.5300000   3.3650000  11.8600000  35.4990000   2.4790000  10.1830000
  37.2760000   4.4280000  12.3060000  38.2180000   6.2880000  11.8370000
  36.2710000   2.5640000  12.5330000  37.5750000   4.4600000  13.3390000
  34.8880000   4.1810000  17.6070000  34.1510000   3.1310000  17.0380000
  35.2870000   5.2230000  16.7180000  35.2660000   4.2430000  19.0140000
  33.8490000   3.1370000  15.6620000  33.8210000   2.3170000  17.6580000
  35.0260000   5.1980000  15.3200000  36.0240000   6.2650000  17.2810000
  35.9960000   5.3110000  19.5140000  34.8360000   3.1870000  19.8840000
  34.3080000   4.1290000  14.8570000  33.2410000   2.3390000  15.2360000
  35.3770000   5.9660000  14.6500000  36.3340000   6.3540000  18.6110000
  36.3820000   7.0610000  16.6270000  36.3490000   5.3240000  20.8990000
  35.1950000   3.1690000  21.2440000  34.2270000   2.3920000  19.4910000
  34.0970000   4.0750000  13.8080000  36.8440000   7.2400000  18.9770000
  35.9500000   4.2800000  21.7220000  37.0910000   6.3870000  21.4400000
  34.9050000   2.3500000  21.8980000  36.3550000   4.3060000  23.1440000
  37.4520000   6.4270000  22.7560000  37.3920000   7.1900000  20.7910000
  37.1110000   5.3710000  23.6500000  36.0050000   3.3030000  24.0300000
  38.0220000   7.2720000  23.1190000  37.5280000   5.4510000  24.9910000
  36.4210000   3.3650000  25.3750000  35.3900000   2.4790000  23.6980000
  37.1670000   4.4280000  25.8210000  38.1090000   6.2880000  25.3520000
  36.1620000   2.5640000  26.0480000  37.4660000   4.4600000  26.8530000
  34.7790000   4.1810000  31.1210000  34.0430000   3.1310000  30.5520000
  35.1780000   5.2230000  30.2320000  35.1570000   4.2430000  32.5280000
  33.7410000   3.1370000  29.1770000  33.7130000   2.3170000  31.1730000
  34.9170000   5.1980000  28.8350000  35.9160000   6.2650000  30.7960000
  35.8880000   5.3110000  33.0280000  34.7280000   3.1870000  33.3990000
  34.1990000   4.1290000  28.3710000  33.1330000   2.3390000  28.7510000
  35.2690000   5.9660000  28.1640000  36.2260000   6.3540000  32.1250000
  36.2740000   7.0610000  30.1420000  36.2400000   5.3240000  34.4130000
  35.0870000   3.1690000  34.7580000  34.1190000   2.3920000  33.0050000
  33.9890000   4.0750000  27.3220000  36.7360000   7.2400000  32.4920000
  35.8410000   4.2800000  35.2370000  36.9820000   6.3870000  34.9540000
  34.7970000   2.3500000  35.4120000  36.2460000   4.3060000  36.6580000
  37.3430000   6.4270000  36.2700000  37.2830000   7.1900000  34.3050000
  37.0030000   5.3710000  37.1650000  35.8960000   3.3030000  37.5450000
  37.9130000   7.2720000  36.6340000  37.4190000   5.4510000  38.5060000
  36.3130000   3.3650000  38.8900000  35.2820000   2.4790000  37.2120000
  37.0590000   4.4280000  39.3350000  38.0010000   6.2880000  38.8670000
  36.0540000   2.5640000  39.5630000  37.3580000   4.4600000  40.3680000
  34.6710000   4.1810000  44.6360000  33.9340000   3.1310000  44.0670000
  35.0700000   5.2230000  43.7470000  35.0490000   4.2430000  46.0430000
  33.6320000   3.1370000  42.6910000  33.6040000   2.3170000  44.6870000
  34.8090000   5.1980000  42.3490000  35.8070000   6.2650000  44.3100000
  35.7790000   5.3110000  46.5430000  34.6190000   3.1870000  46.9130000
  34.0910000   4.1290000  41.8860000  33.0240000   2.3390000  42.2650000
  35.1600000   5.9660000  41.6790000  36.1170000   6.3540000  45.6400000
  36.1650000   7.0610000  43.6560000  36.1320000   5.3240000  47.9280000
  34.9780000   3.1690000  48.2730000  34.0100000   2.3920000  46.5200000
  33.8800000   4.0750000  40.8370000  36.6270000   7.2400000  46.0060000
  35.7330000   4.2800000  48.7510000  36.8740000   6.3870000  48.4690000
  34.6880000   2.3500000  48.9270000  36.1370000   4.3060000  50.1730000
  37.2350000   6.4270000  49.7850000  37.1750000   7.1900000  47.8200000
  36.8940000   5.3710000  50.6800000  35.7880000   3.3030000  51.0590000
  37.8050000   7.2720000  50.1480000  37.3110000   5.4510000  52.0200000
  36.2040000   3.3650000  52.4040000  35.1730000   2.4790000  50.7270000
  36.9500000   4.4280000  52.8500000  37.8920000   6.2880000  52.3810000
  35.9450000   2.5640000  53.0770000  37.2490000   4.4600000  53.8830000
  34.5620000   4.1810000  58.1500000  33.8260000   3.1310000  57.5820000
  34.9610000   5.2230000  57.2610000  34.9400000   4.2430000  59.5570000
  33.5240000   3.1370000  56.2060000  33.4960000   2.3170000  58.2020000
  34.7000000   5.1980000  55.8640000  35.6990000   6.2650000  57.8250000
  35.6710000   5.3110000  60.0570000  34.5110000   3.1870000  60.4280000
  33.9820000   4.1290000  55.4000000  32.9160000   2.3390000  55.7800000
  35.0520000   5.9660000  55.1930000  36.0090000   6.3540000  59.1550000
  36.0570000   7.0610000  57.1710000  36.0230000   5.3240000  61.4430000
  34.8700000   3.1690000  61.7870000  33.9020000   2.3920000  60.0340000
  33.7720000   4.0750000  54.3520000  36.5190000   7.2400000  59.5210000
  35.6240000   4.2800000  62.2660000  36.7650000   6.3870000  61.9830000
  34.5800000   2.3500000  62.4410000  36.0290000   4.3060000  63.6870000
  37.1260000   6.4270000  63.3000000  37.0660000   7.1900000  61.3340000
  36.7860000   5.3710000  64.1940000  35.6790000   3.3030000  64.5740000
  37.6960000   7.2720000  63.6630000  37.2020000   5.4510000  65.5350000
  36.0960000   3.3650000  65.9190000  35.0650000   2.4790000  64.2410000
  36.8420000   4.4280000  66.3650000  37.7840000   6.2880000  65.8960000
  35.8370000   2.5640000  66.5920000  37.1410000   4.4600000  67.3970000
  34.9960000  16.4890000   4.0920000  34.2600000  15.4390000   3.5230000
  35.3950000  17.5310000   3.2030000  35.3740000  16.5510000   5.4990000
  33.9580000  15.4450000   2.1470000  33.9300000  14.6250000   4.1440000
  35.1340000  17.5060000   1.8060000  36.1330000  18.5730000   3.7670000
  36.1050000  17.6190000   5.9990000  34.9450000  15.4950000   6.3690000
  34.4160000  16.4370000   1.3420000  33.3500000  14.6470000   1.7220000
  35.4860000  18.2740000   1.1350000  36.4430000  18.6620000   5.0960000
  36.4910000  19.3690000   3.1120000  36.4570000  17.6320000   7.3840000
  35.3040000  15.4770000   7.7290000  34.3360000  14.7000000   5.9760000
  34.2060000  16.3830000   0.2930000  36.9530000  19.5480000   5.4630000
  36.0580000  16.5880000   8.2070000  37.1990000  18.6950000   7.9250000
  35.0140000  14.6580000   8.3830000  36.4630000  16.6140000   9.6290000
  37.5600000  18.7350000   9.2410000  37.5000000  19.4980000   7.2760000
  37.2200000  17.6790000  10.1360000  36.1130000  15.6110000  10.5160000
  38.1300000  19.5800000   9.6050000  37.6360000  17.7590000  11.4770000
  36.5300000  15.6730000  11.8600000  35.4990000  14.7870000  10.1830000
  37.2760000  16.7360000  12.3060000  38.2180000  18.5960000  11.8370000
  36.2710000  14.8720000  12.5330000  37.5750000  16.7680000  13.3390000
  34.7790000  16.4890000  31.1210000  34.0430000  15.4390000  30.5520000
  35.1780000  17.5310000  30.2320000  35.1570000  16.5510000  32.5280000
  33.7410000  15.4450000  29.1770000  33.7130000  14.6250000  31.1730000
  34.9170000  17.5060000  28.8350000  35.9160000  18.5730000  30.7960000
  35.8880000  17.6190000  33.0280000  34.7280000  15.4950000  33.3990000
  34.1990000  16.4370000  28.3710000  33.1330000  14.6470000  28.7510000
  35.2690000  18.2740000  28.1640000  36.2260000  18.6620000  32.1250000
  36.2740000  19.3690000  30.1420000  36.2400000  17.6320000  34.4130000
  35.0870000  15.4770000  34.7580000  34.1190000  14.7000000  33.0050000
  33.9890000  16.3830000  27.3220000  36.7360000  19.5480000  32.4920000
  35.8410000  16.5880000  35.2370000  36.9820000  18.6950000  34.9540000
  34.7970000  14.6580000  35.4120000  36.2460000  16.6140000  36.6580000
  37.3430000  18.7350000  36.2700000  37.2830000  19.4980000  34.3050000
  37.0030000  17.6790000  37.1650000  35.8960000  15.6110000  37.5450000
  37.9130000  19.5800000  36.6340000  37.4190000  17.7590000  38.5060000
  36.3130000  15.6730000  38.8900000  35.2820000  14.7870000  37.2120000
  37.0590000  16.7360000  39.3350000  38.0010000  18.5960000  38.8670000
  36.0540000  14.8720000  39.5630000  37.3580000  16.7680000  40.3680000
  34.6710000  16.4890000  44.6360000  33.9340000  15.4390000  44.0670000
  35.0700000  17.5310000  43.7470000  35.0490000  16.5510000  46.0430000
  33.6320000  15.4450000  42.6910000  33.6040000  14.6250000  44.6870000
  34.8090000  17.5060000  42.3490000  35.8070000  18.5730000  44.3100000
  35.7790000  17.6190000  46.5430000  34.6190000  15.4950000  46.9130000
  34.0910000  16.4370000  41.8860000  33.0240000  14.6470000  42.2650000
  35.1600000  18.2740000  41.6790000  36.1170000  18.6620000  45.6400000
  36.1650000  19.3690000  43.6560000  36.1320000  17.6320000  47.9280000
  34.9780000  15.4770000  48.2730000  34.0100000  14.7000000  46.5200000
  33.8800000  16.3830000  40.8370000  36.6270000  19.5480000  46.0060000
  35.7330000  16.5880000  48.7510000  36.8740000  18.6950000  48.4690000
  34.6880000  14.6580000  48.9270000  36.1370000  16.6140000  50.1730000
  37.2350000  18.7350000  49.7850000  37.1750000  19.4980000  47.8200000
  36.8940000  17.6790000  50.6800000  35.7880000  15.6110000  51.0590000
  37.8050000  19.5800000  50.1480000  37.3110000  17.7590000  52.0200000
  36.2040000  15.6730000  52.4040000  35.1730000  14.7870000  50.7270000
  36.9500000  16.7360000  52.8500000  37.8920000  18.5960000  52.3810000
  35.9450000  14.8720000  53.0770000  37.2490000  16.7680000  53.8830000
  34.5620000  16.4890000  58.1500000  33.8260000  15.4390000  57.5820000
  34.9610000  17.5310000  57.2610000  34.9400000  16.5510000  59.5570000
  33.5240000  15.4450000  56.2060000  33.4960000  14.6250000  58.2020000
  34.7000000  17.5060000  55.8640000  35.6990000  18.5730000  57.8250000
  35.6710000  17.6190000  60.0570000  34.5110000  15.4950000  60.4280000
  33.9820000  16.4370000  55.4000000  32.9160000  14.6470000  55.7800000
  35.0520000  18.2740000  55.1930000  36.0090000  18.6620000  59.1550000
  36.0570000  19.3690000  57.1710000  36.0230000  17.6320000  61.4430000
  34.8700000  15.4770000  61.7870000  33.9020000  14.7000000  60.0340000
  33.7720000  16.3830000  54.3520000  36.5190000  19.5480000  59.5210000
  35.6240000  16.5880000  62.2660000  36.7650000  18.6950000  61.9830000
  34.5800000  14.6580000  62.4410000  36.0290000  16.6140000  63.6870000
  37.1260000  18.7350000  63.3000000  37.0660000  19.4980000  61.3340000
  36.7860000  17.6790000  64.1940000  35.6790000  15.6110000  64.5740000
  37.6960000  19.5800000  63.6630000  37.2020000  17.7590000  65.5350000
  36.0960000  15.6730000  65.9190000  35.0650000  14.7870000  64.2410000
  36.8420000  16.7360000  66.3650000  37.7840000  18.5960000  65.8960000
  35.8370000  14.8720000  66.5920000  37.1410000  16.7680000  67.3970000
  34.9960000  22.6430000   4.0920000  34.2600000  21.5930000   3.5230000
  35.3950000  23.6850000   3.2030000  35.3740000  22.7050000   5.4990000
  33.9580000  21.5990000   2.1470000  33.9300000  20.7790000   4.1440000
  35.1340000  23.6600000   1.8060000  36.1330000  24.7270000   3.7670000
  36.1050000  23.7730000   5.9990000  34.9450000  21.6490000   6.3690000
  34.4160000  22.5910000   1.3420000  33.3500000  20.8010000   1.7220000
  35.4860000  24.4280000   1.1350000  36.4430000  24.8160000   5.0960000
  36.4910000  25.5230000   3.1120000  36.4570000  23.7860000   7.3840000
  35.3040000  21.6310000   7.7290000  34.3360000  20.8540000   5.9760000
  34.2060000  22.5370000   0.2930000  36.9530000  25.7020000   5.4630000
  36.0580000  22.7420000   8.2070000  37.1990000  24.8490000   7.9250000
  35.0140000  20.8120000   8.3830000  36.4630000  22.7680000   9.6290000
  37.5600000  24.8890000   9.2410000  37.5000000  25.6520000   7.2760000
  37.2200000  23.8330000  10.1360000  36.1130000  21.7650000  10.5160000
  38.1300000  25.7340000   9.6050000  37.6360000  23.9130000  11.4770000
  36.5300000  21.8270000  11.8600000  35.4990000  20.9410000  10.1830000
  37.2760000  22.8900000  12.3060000  38.2180000  24.7500000  11.8370000
  36.2710000  21.0260000  12.5330000  37.5750000  22.9220000  13.3390000
  34.7790000  22.6430000  31.1210000  34.0430000  21.5930000  30.5520000
  35.1780000  23.6850000  30.2320000  35.1570000  22.7050000  32.5280000
  33.7410000  21.5990000  29.1770000  33.7130000  20.7790000  31.1730000
  34.9170000  23.6600000  28.8350000  35.9160000  24.7270000  30.7960000
  35.8880000  23.7730000  33.0280000  34.7280000  21.6490000  33.3990000
  34.1990000  22.5910000  28.3710000  33.1330000  20.8010000  28.7510000
  35.2690000  24.4280000  28.1640000  36.2260000  24.8160000  32.1250000
  36.2740000  25.5230000  30.1420000  36.2400000  23.7860000  34.4130000
  35.0870000  21.6310000  34.7580000  34.1190000  20.8540000  33.0050000
  33.9890000  22.5370000  27.3220000  36.7360000  25.7020000  32.4920000
  35.8410000  22.7420000  35.2370000  36.9820000  24.8490000  34.9540000
  34.7970000  20.8120000  35.4120000  36.2460000  22.7680000  36.6580000
  37.3430000  24.8890000  36.2700000  37.2830000  25.6520000  34.3050000
  37.0030000  23.8330000  37.1650000  35.8960000  21.7650000  37.5450000
  37.9130000  25.7340000  36.6340000  37.4190000  23.9130000  38.5060000
  36.3130000  21.8270000  38.8900000  35.2820000  20.9410000  37.2120000
  37.0590000  22.8900000  39.3350000  38.0010000  24.7500000  38.8670000
  36.0540000  21.0260000  39.5630000  37.3580000  22.9220000  40.3680000
  34.6710000  22.6430000  44.6360000  33.9340000  21.5930000  44.0670000
  35.0700000  23.6850000  43.7470000  35.0490000  22.7050000  46.0430000
  33.6320000  21.5990000  42.6910000  33.6040000  20.7790000  44.6870000
  34.8090000  23.6600000  42.3490000  35.8070000  24.7270000  44.3100000
  35.7790000  23.7730000  46.5430000  34.6190000  21.6490000  46.9130000
  34.0910000  22.5910000  41.8860000  33.0240000  20.8010000  42.2650000
  35.1600000  24.4280000  41.6790000  36.1170000  24.8160000  45.6400000
  36.1650000  25.5230000  43.6560000  36.1320000  23.7860000  47.9280000
  34.9780000  21.6310000  48.2730000  34.0100000  20.8540000  46.5200000
  33.8800000  22.5370000  40.8370000  36.6270000  25.7020000  46.0060000
  35.7330000  22.7420000  48.7510000  36.8740000  24.8490000  48.4690000
  34.6880000  20.8120000  48.9270000  36.1370000  22.7680000  50.1730000
  37.2350000  24.8890000  49.7850000  37.1750000  25.6520000  47.8200000
  36.8940000  23.8330000  50.6800000  35.7880000  21.7650000  51.0590000
  37.8050000  25.7340000  50.1480000  37.3110000  23.9130000  52.0200000
  36.2040000  21.8270000  52.4040000  35.1730000  20.9410000  50.7270000
  36.9500000  22.8900000  52.8500000  37.8920000  24.7500000  52.3810000
  35.9450000  21.0260000  53.0770000  37.2490000  22.9220000  53.8830000
  34.5620000  22.6430000  58.1500000  33.8260000  21.5930000  57.5820000
  34.9610000  23.6850000  57.2610000  34.9400000  22.7050000  59.5570000
  33.5240000  21.5990000  56.2060000  33.4960000  20.7790000  58.2020000
  34.7000000  23.6600000  55.8640000  35.6990000  24.7270000  57.8250000
  35.6710000  23.7730000  60.0570000  34.5110000  21.6490000  60.4280000
  33.9820000  22.5910000  55.4000000  32.9160000  20.8010000  55.7800000
  35.0520000  24.4280000  55.1930000  36.0090000  24.8160000  59.1550000
  36.0570000  25.5230000  57.1710000  36.0230000  23.7860000  61.4430000
  34.8700000  21.6310000  61.7870000  33.9020000  20.8540000  60.0340000
  33.7720000  22.5370000  54.3520000  36.5190000  25.7020000  59.5210000
  35.6240000  22.7420000  62.2660000  36.7650000  24.8490000  61.9830000
  34.5800000  20.8120000  62.4410000  36.0290000  22.7680000  63.6870000
  37.1260000  24.8890000  63.3000000  37.0660000  25.6520000  61.3340000
  36.7860000  23.8330000  64.1940000  35.6790000  21.7650000  64.5740000
  37.6960000  25.7340000  63.6630000  37.2020000  23.9130000  65.5350000
  36.0960000  21.8270000  65.9190000  35.0650000  20.9410000  64.2410000
  36.8420000  22.8900000  66.3650000  37.7840000  24.7500000  65.8960000
  35.8370000  21.0260000  66.5920000  37.1410000  22.9220000  67.3970000
  34.9960000  28.7970000   4.0920000  34.2600000  27.7470000   3.5230000
  35.3950000  29.8390000   3.2030000  35.3740000  28.8590000   5.4990000
  33.9580000  27.7530000   2.1470000  33.9300000  26.9330000   4.1440000
  35.1340000  29.8140000   1.8060000  36.1330000  30.8810000   3.7670000
  36.1050000  29.9270000   5.9990000  34.9450000  27.8030000   6.3690000
  34.4160000  28.7450000   1.3420000  33.3500000  26.9550000   1.7220000
  35.4860000  30.5820000   1.1350000  36.4430000  30.9700000   5.0960000
  36.4910000  31.6770000   3.1120000  36.4570000  29.9400000   7.3840000
  35.3040000  27.7850000   7.7290000  34.3360000  27.0080000   5.9760000
  34.2060000  28.6910000   0.2930000  36.9530000  31.8560000   5.4630000
  36.0580000  28.8960000   8.2070000  37.1990000  31.0030000   7.9250000
  35.0140000  26.9660000   8.3830000  36.4630000  28.9220000   9.6290000
  37.5600000  31.0430000   9.2410000  37.5000000  31.8060000   7.2760000
  37.2200000  29.9870000  10.1360000  36.1130000  27.9190000  10.5160000
  38.1300000  31.8880000   9.6050000  37.6360000  30.0670000  11.4770000
  36.5300000  27.9810000  11.8600000  35.4990000  27.0950000  10.1830000
  37.2760000  29.0440000  12.3060000  38.2180000  30.9040000  11.8370000
  36.2710000  27.1800000  12.5330000  37.5750000  29.0760000  13.3390000
  34.7790000  28.7970000  31.1210000  34.0430000  27.7470000  30.5520000
  35.1780000  29.8390000  30.2320000  35.1570000  28.8590000  32.5280000
  33.7410000  27.7530000  29.1770000  33.7130000  26.9330000  31.1730000
  34.9170000  29.8140000  28.8350000  35.9160000  30.8810000  30.7960000
  35.8880000  29.9270000  33.0280000  34.7280000  27.8030000  33.3990000
  34.1990000  28.7450000  28.3710000  33.1330000  26.9550000  28.7510000
  35.2690000  30.5820000  28.1640000  36.2260000  30.9700000  32.1250000
  36.2740000  31.6770000  30.1420000  36.2400000  29.9400000  34.4130000
  35.0870000  27.7850000  34.7580000  34.1190000  27.0080000  33.0050000
  33.9890000  28.6910000  27.3220000  36.7360000  31.8560000  32.4920000
  35.8410000  28.8960000  35.2370000  36.9820000  31.0030000  34.9540000
  34.7970000  26.9660000  35.4120000  36.2460000  28.9220000  36.6580000
  37.3430000  31.0430000  36.2700000  37.2830000  31.8060000  34.3050000
  37.0030000  29.9870000  37.1650000  35.8960000  27.9190000  37.5450000
  37.9130000  31.8880000  36.6340000  37.4190000  30.0670000  38.5060000
  36.3130000  27.9810000  38.8900000  35.2820000  27.0950000  37.2120000
  37.0590000  29.0440000  39.3350000  38.0010000  30.9040000  38.8670000
  36.0540000  27.1800000  39.5630000  37.3580000  29.0760000  40.3680000
  34.6710000  28.7970000  44.6360000  33.9340000  27.7470000  44.0670000
  35.0700000  29.8390000  43.7470000  35.0490000  28.8590000  46.0430000
  33.6320000  27.7530000  42.6910000  33.6040000  26.9330000  44.6870000
  34.8090000  29.8140000  42.3490000  35.8070000  30.8810000  44.3100000
  35.7790000  29.9270000  46.5430000  34.6190000  27.8030000  46.9130000
  34.0910000  28.7450000  41.8860000  33.0240000  26.9550000  42.2650000
  35.1600000  30.5820000  41.6790000  36.1170000  30.9700000  45.6400000
  36.1650000  31.6770000  43.6560000  36.1320000  29.9400000  47.9280000
  34.9780000  27.7850000  48.2730000  34.0100000  27.0080000  46.5200000
  33.8800000  28.6910000  40.8370000  36.6270000  31.8560000  46.0060000
  35.7330000  28.8960000  48.7510000  36.8740000  31.0030000  48.4690000
  34.6880000  26.9660000  48.9270000  36.1370000  28.9220000  50.1730000
  37.2350000  31.0430000  49.7850000  37.1750000  31.8060000  47.8200000
  36.8940000  29.9870000  50.6800000  35.7880000  27.9190000  51.0590000
  37.8050000  31.8880000  50.1480000  37.3110000  30.0670000  52.0200000
  36.2040000  27.9810000  52.4040000  35.1730000  27.0950000  50.7270000
  36.9500000  29.0440000  52.8500000  37.8920000  30.9040000  52.3810000
  35.9450000  27.1800000  53.0770000  37.2490000  29.0760000  53.8830000
  34.5620000  28.7970000  58.1500000  33.8260000  27.7470000  57.5820000
  34.9610000  29.8390000  57.2610000  34.9400000  28.8590000  59.5570000
  33.5240000  27.7530000  56.2060000  33.4960000  26.9330000  58.2020000
  34.7000000  29.8140000  55.8640000  35.6990000  30.8810000  57.8250000
  35.6710000  29.9270000  60.0570000  34.5110000  27.8030000  60.4280000
  33.9820000  28.7450000  55.4000000  32.9160000  26.9550000  55.7800000
  35.0520000  30.5820000  55.1930000  36.0090000  30.9700000  59.1550000
  36.0570000  31.6770000  57.1710000  36.0230000  29.9400000  61.4430000
  34.8700000  27.7850000  61.7870000  33.9020000  27.0080000  60.0340000
  33.7720000  28.6910000  54.3520000  36.5190000  31.8560000  59.5210000
  35.6240000  28.8960000  62.2660000  36.7650000  31.0030000  61.9830000
  34.5800000  26.9660000  62.4410000  36.0290000  28.9220000  63.6870000
  37.1260000  31.0430000  63.3000000  37.0660000  31.8060000  61.3340000
  36.7860000  29.9870000  64.1940000  35.6790000  27.9190000  64.5740000
  37.6960000  31.8880000  63.6630000  37.2020000  30.0670000  65.5350000
  36.0960000  27.9810000  65.9190000  35.0650000  27.0950000  64.2410000
  36.8420000  29.0440000  66.3650000  37.7840000  30.9040000  65.8960000
  35.8370000  27.1800000  66.5920000  37.1410000  29.0760000  67.3970000
  34.9960000  34.9510000   4.0920000  34.2600000  33.9010000   3.5230000
  35.3950000  35.9930000   3.2030000  35.3740000  35.0130000   5.4990000
  33.9580000  33.9070000   2.1470000  33.9300000  33.0870000   4.1440000
  35.1340000  35.9680000   1.8060000  36.1330000  37.0350000   3.7670000
  36.1050000  36.0810000   5.9990000  34.9450000  33.9570000   6.3690000
  34.4160000  34.8990000   1.3420000  33.3500000  33.1090000   1.7220000
  35.4860000  36.7360000   1.1350000  36.4430000  37.1240000   5.0960000
  36.4910000  37.8310000   3.1120000  36.4570000  36.0940000   7.3840000
  35.3040000  33.9390000   7.7290000  34.3360000  33.1620000   5.9760000
  34.2060000  34.8450000   0.2930000  36.9530000  38.0100000   5.4630000
  36.0580000  35.0500000   8.2070000  37.1990000  37.1570000   7.9250000
  35.0140000  33.1200000   8.3830000  36.4630000  35.0760000   9.6290000
  37.5600000  37.1970000   9.2410000  37.5000000  37.9600000   7.2760000
  37.2200000  36.1410000  10.1360000  36.1130000  34.0730000  10.5160000
  38.1300000  38.0420000   9.6050000  37.6360000  36.2210000  11.4770000
  36.5300000  34.1350000  11.8600000  35.4990000  33.2490000  10.1830000
  37.2760000  35.1980000  12.3060000  38.2180000  37.0580000  11.8370000
  36.2710000  33.3340000  12.5330000  37.5750000  35.2300000  13.3390000
  34.7790000  34.9510000  31.1210000  34.0430000  33.9010000  30.5520000
  35.1780000  35.9930000  30.2320000  35.1570000  35.0130000  32.5280000
  33.7410000  33.9070000  29.1770000  33.7130000  33.0870000  31.1730000
  34.9170000  35.9680000  28.8350000  35.9160000  37.0350000  30.7960000
  35.8880000  36.0810000  33.0280000  34.7280000  33.9570000  33.3990000
  34.1990000  34.8990000  28.3710000  33.1330000  33.1090000  28.7510000
  35.2690000  36.7360000  28.1640000  36.2260000  37.1240000  32.1250000
  36.2740000  37.8310000  30.1420000  36.2400000  36.0940000  34.4130000
  35.0870000  33.9390000  34.7580000  34.1190000  33.1620000  33.0050000
  33.9890000  34.8450000  27.3220000  36.7360000  38.0100000  32.4920000
  35.8410000  35.0500000  35.2370000  36.9820000  37.1570000  34.9540000
  34.7970000  33.1200000  35.4120000  36.2460000  35.0760000  36.6580000
  37.3430000  37.1970000  36.2700000  37.2830000  37.9600000  34.3050000
  37.0030000  36.1410000  37.1650000  35.8960000  34.0730000  37.5450000
  37.9130000  38.0420000  36.6340000  37.4190000  36.2210000  38.5060000
  36.3130000  34.1350000  38.8900000  35.2820000  33.2490000  37.2120000
  37.0590000  35.1980000  39.3350000  38.0010000  37.0580000  38.8670000
  36.0540000  33.3340000  39.5630000  37.3580000  35.2300000  40.3680000
  34.6710000  34.9510000  44.6360000  33.9340000  33.9010000  44.0670000
  35.0700000  35.9930000  43.7470000  35.0490000  35.0130000  46.0430000
  33.6320000  33.9070000  42.6910000  33.6040000  33.0870000  44.6870000
  34.8090000  35.9680000  42.3490000  35.8070000  37.0350000  44.3100000
  35.7790000  36.0810000  46.5430000  34.6190000  33.9570000  46.9130000
  34.0910000  34.8990000  41.8860000  33.0240000  33.1090000  42.2650000
  35.1600000  36.7360000  41.6790000  36.1170000  37.1240000  45.6400000
  36.1650000  37.8310000  43.6560000  36.1320000  36.0940000  47.9280000
  34.9780000  33.9390000  48.2730000  34.0100000  33.1620000  46.5200000
  33.8800000  34.8450000  40.8370000  36.6270000  38.0100000  46.0060000
  35.7330000  35.0500000  48.7510000  36.8740000  37.1570000  48.4690000
  34.6880000  33.1200000  48.9270000  36.1370000  35.0760000  50.1730000
  37.2350000  37.1970000  49.7850000  37.1750000  37.9600000  47.8200000
  36.8940000  36.1410000  50.6800000  35.7880000  34.0730000  51.0590000
  37.8050000  38.0420000  50.1480000  37.3110000  36.2210000  52.0200000
  36.2040000  34.1350000  52.4040000  35.1730000  33.2490000  50.7270000
  36.9500000  35.1980000  52.8500000  37.8920000  37.0580000  52.3810000
  35.9450000  33.3340000  53.0770000  37.2490000  35.2300000  53.8830000
  34.5620000  34.9510000  58.1500000  33.8260000  33.9010000  57.5820000
  34.9610000  35.9930000  57.2610000  34.9400000  35.0130000  59.5570000
  33.5240000  33.9070000  56.2060000  33.4960000  33.0870000  58.2020000
  34.7000000  35.9680000  55.8640000  35.6990000  37.0350000  57.8250000
  35.6710000  36.0810000  60.0570000  34.5110000  33.9570000  60.4280000
  33.9820000  34.8990000  55.4000000  32.9160000  33.1090000  55.7800000
  35.0520000  36.7360000  55.1930000  36.0090000  37.1240000  59.1550000
  36.0570000  37.8310000  57.1710000  36.0230000  36.0940000  61.4430000
  34.8700000  33.9390000  61.7870000  33.9020000  33.1620000  60.0340000
  33.7720000  34.8450000  54.3520000  36.5190000  38.0100000  59.5210000
  35.6240000  35.0500000  62.2660000  36.7650000  37.1570000  61.9830000
  34.5800000  33.1200000  62.4410000  36.0290000  35.0760000  63.6870000
  37.1260000  37.1970000  63.3000000  37.0660000  37.9600000  61.3340000
  36.7860000  36.1410000  64.1940000  35.6790000  34.0730000  64.5740000
  37.6960000  38.0420000  63.6630000  37.2020000  36.2210000  65.5350000
  36.0960000  34.1350000  65.9190000  35.0650000  33.2490000  64.2410000
  36.8420000  35.1980000  66.3650000  37.7840000  37.0580000  65.8960000
  35.8370000  33.3340000  66.5920000  37.1410000  35.2300000  67.3970000
  34.9960000  41.1050000   4.0920000  34.2600000  40.0550000   3.5230000
  35.3950000  42.1470000   3.2030000  35.3740000  41.1670000   5.4990000
  33.9580000  40.0610000   2.1470000  33.9300000  39.2410000   4.1440000
  35.1340000  42.1220000   1.8060000  36.1330000  43.1890000   3.7670000
  36.1050000  42.2350000   5.9990000  34.9450000  40.1110000   6.3690000
  34.4160000  41.0530000   1.3420000  33.3500000  39.2630000   1.7220000
  35.4860000  42.8900000   1.1350000  36.4430000  43.2780000   5.0960000
  36.4910000  43.9850000   3.1120000  36.4570000  42.2480000   7.3840000
  35.3040000  40.0930000   7.7290000  34.3360000  39.3160000   5.9760000
  34.2060000  40.9990000   0.2930000  36.9530000  44.1640000   5.4630000
  36.0580000  41.2040000   8.2070000  37.1990000  43.3110000   7.9250000
  35.0140000  39.2740000   8.3830000  36.4630000  41.2300000   9.6290000
  37.5600000  43.3510000   9.2410000  37.5000000  44.1140000   7.2760000
  37.2200000  42.2950000  10.1360000  36.1130000  40.2270000  10.5160000
  38.1300000  44.1960000   9.6050000  37.6360000  42.3750000  11.4770000
  36.5300000  40.2890000  11.8600000  35.4990000  39.4030000  10.1830000
  37.2760000  41.3520000  12.3060000  38.2180000  43.2120000  11.8370000
  36.2710000  39.4880000  12.5330000  37.5750000  41.3840000  13.3390000
  34.7790000  41.1050000  31.1210000  34.0430000  40.0550000  30.5520000
  35.1780000  42.1470000  30.2320000  35.1570000  41.1670000  32.5280000
  33.7410000  40.0610000  29.1770000  33.7130000  39.2410000  31.1730000
  34.9170000  42.1220000  28.8350000  35.9160000  43.1890000  30.7960000
  35.8880000  42.2350000  33.0280000  34.7280000  40.1110000  33.3990000
  34.1990000  41.0530000  28.3710000  33.1330000  39.2630000  28.7510000
  35.2690000  42.8900000  28.1640000  36.2260000  43.2780000  32.1250000
  36.2740000  43.9850000  30.1420000  36.2400000  42.2480000  34.4130000
  35.0870000  40.0930000  34.7580000  34.1190000  39.3160000  33.0050000
  33.9890000  40.9990000  27.3220000  36.7360000  44.1640000  32.4920000
  35.8410000  41.2040000  35.2370000  36.9820000  43.3110000  34.9540000
  34.7970000  39.2740000  35.4120000  36.2460000  41.2300000  36.6580000
  37.3430000  43.3510000  36.2700000  37.2830000  44.1140000  34.3050000
  37.0030000  42.2950000  37.1650000  35.8960000  40.2270000  37.5450000
  37.9130000  44.1960000  36.6340000  37.4190000  42.3750000  38.5060000
  36.3130000  40.2890000  38.8900000  35.2820000  39.4030000  37.2120000
  37.0590000  41.3520000  39.3350000  38.0010000  43.2120000  38.8670000
  36.0540000  39.4880000  39.5630000  37.3580000  41.3840000  40.3680000
  34.6710000  41.1050000  44.6360000  33.9340000  40.0550000  44.0670000
  35.0700000  42.1470000  43.7470000  35.0490000  41.1670000  46.0430000
  33.6320000  40.0610000  42.6910000  33.6040000  39.2410000  44.6870000
  34.8090000  42.1220000  42.3490000  35.8070000  43.1890000  44.3100000
  35.7790000  42.2350000  46.5430000  34.6190000  40.1110000  46.9130000
  34.0910000  41.0530000  41.8860000  33.0240000  39.2630000  42.2650000
  35.1600000  42.8900000  41.6790000  36.1170000  43.2780000  45.6400000
  36.1650000  43.9850000  43.6560000  36.1320000  42.2480000  47.9280000
  34.9780000  40.0930000  48.2730000  34.0100000  39.3160000  46.5200000
  33.8800000  40.9990000  40.8370000  36.6270000  44.1640000  46.0060000
  35.7330000  41.2040000  48.7510000  36.8740000  43.3110000  48.4690000
  34.6880000  39.2740000  48.9270000  36.1370000  41.2300000  50.1730000
  37.2350000  43.3510000  49.7850000  37.1750000  44.1140000  47.8200000
  36.8940000  42.2950000  50.6800000  35.7880000  40.2270000  51.0590000
  37.8050000  44.1960000  50.1480000  37.3110000  42.3750000  52.0200000
  36.2040000  40.2890000  52.4040000  35.1730000  39.4030000  50.7270000
  36.9500000  41.3520000  52.8500000  37.8920000  43.2120000  52.3810000
  35.9450000  39.4880000  53.0770000  37.2490000  41.3840000  53.8830000
  34.5620000  41.1050000  58.1500000  33.8260000  40.0550000  57.5820000
  34.9610000  42.1470000  57.2610000  34.9400000  41.1670000  59.5570000
  33.5240000  40.0610000  56.2060000  33.4960000  39.2410000  58.2020000
  34.7000000  42.1220000  55.8640000  35.6990000  43.1890000  57.8250000
  35.6710000  42.2350000  60.0570000  34.5110000  40.1110000  60.4280000
  33.9820000  41.0530000  55.4000000  32.9160000  39.2630000  55.7800000
  35.0520000  42.8900000  55.1930000  36.0090000  43.2780000  59.1550000
  36.0570000  43.9850000  57.1710000  36.0230000  42.2480000  61.4430000
  34.8700000  40.0930000  61.7870000  33.9020000  39.3160000  60.0340000
  33.7720000  40.9990000  54.3520000  36.5190000  44.1640000  59.5210000
  35.6240000  41.2040000  62.2660000  36.7650000  43.3110000  61.9830000
  34.5800000  39.2740000  62.4410000  36.0290000  41.2300000  63.6870000
  37.1260000  43.3510000  63.3000000  37.0660000  44.1140000  61.3340000
  36.7860000  42.2950000  64.1940000  35.6790000  40.2270000  64.5740000
  37.6960000  44.1960000  63.6630000  37.2020000  42.3750000  65.5350000
  36.0960000  40.2890000  65.9190000  35.0650000  39.4030000  64.2410000
  36.8420000  41.3520000  66.3650000  37.7840000  43.2120000  65.8960000
  35.8370000  39.4880000  66.5920000  37.1410000  41.3840000  67.3970000
  34.8880000  10.3350000  17.6070000  34.1510000   9.2850000  17.0380000
  35.2870000  11.3770000  16.7180000  35.2660000  10.3970000  19.0140000
  33.8490000   9.2910000  15.6620000  33.8210000   8.4710000  17.6580000
  35.0260000  11.3520000  15.3200000  36.0240000  12.4190000  17.2810000
  35.9960000  11.4650000  19.5140000  34.8360000   9.3410000  19.8840000
  34.3080000  10.2830000  14.8570000  33.2410000   8.4930000  15.2360000
  35.3770000  12.1200000  14.6500000  36.3340000  12.5080000  18.6110000
  36.3820000  13.2150000  16.6270000  36.3490000  11.4780000  20.8990000
  35.1950000   9.3230000  21.2440000  34.2270000   8.5460000  19.4910000
  34.0970000  10.2290000  13.8080000  36.8440000  13.3940000  18.9770000
  35.9500000  10.4340000  21.7220000  37.0910000  12.5410000  21.4400000
  34.9050000   8.5040000  21.8980000  36.3550000  10.4600000  23.1440000
  37.4520000  12.5810000  22.7560000  37.3920000  13.3440000  20.7910000
  37.1110000  11.5250000  23.6500000  36.0050000   9.4570000  24.0300000
  38.0220000  13.4260000  23.1190000  37.5280000  11.6050000  24.9910000
  36.4210000   9.5190000  25.3750000  35.3900000   8.6330000  23.6980000
  37.1670000  10.5820000  25.8210000  38.1090000  12.4420000  25.3520000
  36.1620000   8.7180000  26.0480000  37.4660000  10.6140000  26.8530000
  34.8880000  16.4890000  17.6070000  34.1510000  15.4390000  17.0380000
  35.2870000  17.5310000  16.7180000  35.2660000  16.5510000  19.0140000
  33.8490000  15.4450000  15.6620000  33.8210000  14.6250000  17.6580000
  35.0260000  17.5060000  15.3200000  36.0240000  18.5730000  17.2810000
  35.9960000  17.6190000  19.5140000  34.8360000  15.4950000  19.8840000
  34.3080000  16.4370000  14.8570000  33.2410000  14.6470000  15.2360000
  35.3770000  18.2740000  14.6500000  36.3340000  18.6620000  18.6110000
  36.3820000  19.3690000  16.6270000  36.3490000  17.6320000  20.8990000
  35.1950000  15.4770000  21.2440000  34.2270000  14.7000000  19.4910000
  34.0970000  16.3830000  13.8080000  36.8440000  19.5480000  18.9770000
  35.9500000  16.5880000  21.7220000  37.0910000  18.6950000  21.4400000
  34.9050000  14.6580000  21.8980000  36.3550000  16.6140000  23.1440000
  37.4520000  18.7350000  22.7560000  37.3920000  19.4980000  20.7910000
  37.1110000  17.6790000  23.6500000  36.0050000  15.6110000  24.0300000
  38.0220000  19.5800000  23.1190000  37.5280000  17.7590000  24.9910000
  36.4210000  15.6730000  25.3750000  35.3900000  14.7870000  23.6980000
  37.1670000  16.7360000  25.8210000  38.1090000  18.5960000  25.3520000
  36.1620000  14.8720000  26.0480000  37.4660000  16.7680000  26.8530000
  34.8880000  22.6430000  17.6070000  34.1510000  21.5930000  17.0380000
  35.2870000  23.6850000  16.7180000  35.2660000  22.7050000  19.0140000
  33.8490000  21.5990000  15.6620000  33.8210000  20.7790000  17.6580000
  35.0260000  23.6600000  15.3200000  36.0240000  24.7270000  17.2810000
  35.9960000  23.7730000  19.5140000  34.8360000  21.6490000  19.8840000
  34.3080000  22.5910000  14.8570000  33.2410000  20.8010000  15.2360000
  35.3770000  24.4280000  14.6500000  36.3340000  24.8160000  18.6110000
  36.3820000  25.5230000  16.6270000  36.3490000  23.7860000  20.8990000
  35.1950000  21.6310000  21.2440000  34.2270000  20.8540000  19.4910000
  34.0970000  22.5370000  13.8080000  36.8440000  25.7020000  18.9770000
  35.9500000  22.7420000  21.7220000  37.0910000  24.8490000  21.4400000
  34.9050000  20.8120000  21.8980000  36.3550000  22.7680000  23.1440000
  37.4520000  24.8890000  22.7560000  37.3920000  25.6520000  20.7910000
  37.1110000  23.8330000  23.6500000  36.0050000  21.7650000  24.0300000
  38.0220000  25.7340000  23.1190000  37.5280000  23.9130000  24.9910000
  36.4210000  21.8270000  25.3750000  35.3900000  20.9410000  23.6980000
  37.1670000  22.8900000  25.8210000  38.1090000  24.7500000  25.3520000
  36.1620000  21.0260000  26.0480000  37.4660000  22.9220000  26.8530000
  34.8880000  28.7970000  17.6070000  34.1510000  27.7470000  17.0380000
  35.2870000  29.8390000  16.7180000  35.2660000  28.8590000  19.0140000
  33.8490000  27.7530000  15.6620000  33.8210000  26.9330000  17.6580000
  35.0260000  29.8140000  15.3200000  36.0240000  30.8810000  17.2810000
  35.9960000  29.9270000  19.5140000  34.8360000  27.8030000  19.8840000
  34.3080000  28.7450000  14.8570000  33.2410000  26.9550000  15.2360000
  35.3770000  30.5820000  14.6500000  36.3340000  30.9700000  18.6110000
  36.3820000  31.6770000  16.6270000  36.3490000  29.9400000  20.8990000
  35.1950000  27.7850000  21.2440000  34.2270000  27.0080000  19.4910000
  34.0970000  28.6910000  13.8080000  36.8440000  31.8560000  18.9770000
  35.9500000  28.8960000  21.7220000  37.0910000  31.0030000  21.4400000
  34.9050000  26.9660000  21.8980000  36.3550000  28.9220000  23.1440000
  37.4520000  31.0430000  22.7560000  37.3920000  31.8060000  20.7910000
  37.1110000  29.9870000  23.6500000  36.0050000  27.9190000  24.0300000
  38.0220000  31.8880000  23.1190000  37.5280000  30.0670000  24.9910000
  36.4210000  27.9810000  25.3750000  35.3900000  27.0950000  23.6980000
  37.1670000  29.0440000  25.8210000  38.1090000  30.9040000  25.3520000
  36.1620000  27.1800000  26.0480000  37.4660000  29.0760000  26.8530000
  34.8880000  34.9510000  17.6070000  34.1510000  33.9010000  17.0380000
  35.2870000  35.9930000  16.7180000  35.2660000  35.0130000  19.0140000
  33.8490000  33.9070000  15.6620000  33.8210000  33.0870000  17.6580000
  35.0260000  35.9680000  15.3200000  36.0240000  37.0350000  17.2810000
  35.9960000  36.0810000  19.5140000  34.8360000  33.9570000  19.8840000
  34.3080000  34.8990000  14.8570000  33.2410000  33.1090000  15.2360000
  35.3770000  36.7360000  14.6500000  36.3340000  37.1240000  18.6110000
  36.3820000  37.8310000  16.6270000  36.3490000  36.0940000  20.8990000
  35.1950000  33.9390000  21.2440000  34.2270000  33.1620000  19.4910000
  34.0970000  34.8450000  13.8080000  36.8440000  38.0100000  18.9770000
  35.9500000  35.0500000  21.7220000  37.0910000  37.1570000  21.4400000
  34.9050000  33.1200000  21.8980000  36.3550000  35.0760000  23.1440000
  37.4520000  37.1970000  22.7560000  37.3920000  37.9600000  20.7910000
  37.1110000  36.1410000  23.6500000  36.0050000  34.0730000  24.0300000
  38.0220000  38.0420000  23.1190000  37.5280000  36.2210000  24.9910000
  36.4210000  34.1350000  25.3750000  35.3900000  33.2490000  23.6980000
  37.1670000  35.1980000  25.8210000  38.1090000  37.0580000  25.3520000
  36.1620000  33.3340000  26.0480000  37.4660000  35.2300000  26.8530000
  34.8880000  41.1050000  17.6070000  34.1510000  40.0550000  17.0380000
  35.2870000  42.1470000  16.7180000  35.2660000  41.1670000  19.0140000
  33.8490000  40.0610000  15.6620000  33.8210000  39.2410000  17.6580000
  35.0260000  42.1220000  15.3200000  36.0240000  43.1890000  17.2810000
  35.9960000  42.2350000  19.5140000  34.8360000  40.1110000  19.8840000
  34.3080000  41.0530000  14.8570000  33.2410000  39.2630000  15.2360000
  35.3770000  42.8900000  14.6500000  36.3340000  43.2780000  18.6110000
  36.3820000  43.9850000  16.6270000  36.3490000  42.2480000  20.8990000
  35.1950000  40.0930000  21.2440000  34.2270000  39.3160000  19.4910000
  34.0970000  40.9990000  13.8080000  36.8440000  44.1640000  18.9770000
  35.9500000  41.2040000  21.7220000  37.0910000  43.3110000  21.4400000
  34.9050000  39.2740000  21.8980000  36.3550000  41.2300000  23.1440000
  37.4520000  43.3510000  22.7560000  37.3920000  44.1140000  20.7910000
  37.1110000  42.2950000  23.6500000  36.0050000  40.2270000  24.0300000
  38.0220000  44.1960000  23.1190000  37.5280000  42.3750000  24.9910000
  36.4210000  40.2890000  25.3750000  35.3900000  39.4030000  23.6980000
  37.1670000  41.3520000  25.8210000  38.1090000  43.2120000  25.3520000
  36.1620000  39.4880000  26.0480000  37.4660000  41.3840000  26.8530000
  40.8900000   7.2580000  49.9660000  41.6260000   6.2080000  50.5350000
  40.4910000   8.3000000  50.8550000  40.5120000   7.3200000  48.5590000
  41.9280000   6.2140000  51.9110000  41.9560000   5.3940000  49.9150000
  40.7520000   8.2750000  52.2530000  39.7530000   9.3420000  50.2920000
  39.7810000   8.3880000  48.0590000  40.9410000   6.2640000  47.6890000
  41.4700000   7.2060000  52.7160000  42.5360000   5.4160000  52.3370000
  40.4000000   9.0430000  52.9230000  39.4430000   9.4310000  48.9620000
  39.3950000  10.1380000  50.9460000  39.4290000   8.4010000  46.6740000
  40.5820000   6.2460000  46.3290000  41.5500000   5.4690000  48.0820000
  41.6800000   7.1520000  53.7650000  38.9330000  10.3170000  48.5960000
  39.8280000   7.3570000  45.8510000  38.6870000   9.4640000  46.1330000
  40.8720000   5.4270000  45.6750000  39.4230000   7.3830000  44.4290000
  38.3260000   9.5040000  44.8170000  38.3860000  10.2670000  46.7820000
  38.6660000   8.4480000  43.9220000  39.7730000   6.3800000  43.5430000
  37.7560000  10.3490000  44.4530000  38.2500000   8.5280000  42.5820000
  39.3560000   6.4420000  42.1980000  40.3870000   5.5560000  43.8750000
  38.6100000   7.5050000  41.7520000  37.6680000   9.3650000  42.2210000
  39.6150000   5.6410000  41.5250000  38.3110000   7.5370000  40.7190000
  40.8900000  13.4120000  49.9660000  41.6260000  12.3620000  50.5350000
  40.4910000  14.4540000  50.8550000  40.5120000  13.4740000  48.5590000
  41.9280000  12.3680000  51.9110000  41.9560000  11.5480000  49.9150000
  40.7520000  14.4290000  52.2530000  39.7530000  15.4960000  50.2920000
  39.7810000  14.5420000  48.0590000  40.9410000  12.4180000  47.6890000
  41.4700000  13.3600000  52.7160000  42.5360000  11.5700000  52.3370000
  40.4000000  15.1970000  52.9230000  39.4430000  15.5850000  48.9620000
  39.3950000  16.2920000  50.9460000  39.4290000  14.5550000  46.6740000
  40.5820000  12.4000000  46.3290000  41.5500000  11.6230000  48.0820000
  41.6800000  13.3060000  53.7650000  38.9330000  16.4710000  48.5960000
  39.8280000  13.5110000  45.8510000  38.6870000  15.6180000  46.1330000
  40.8720000  11.5810000  45.6750000  39.4230000  13.5370000  44.4290000
  38.3260000  15.6580000  44.8170000  38.3860000  16.4210000  46.7820000
  38.6660000  14.6020000  43.9220000  39.7730000  12.5340000  43.5430000
  37.7560000  16.5030000  44.4530000  38.2500000  14.6820000  42.5820000
  39.3560000  12.5960000  42.1980000  40.3870000  11.7100000  43.8750000
  38.6100000  13.6590000  41.7520000  37.6680000  15.5190000  42.2210000
  39.6150000  11.7950000  41.5250000  38.3110000  13.6910000  40.7190000
  40.8900000  19.5660000  49.9660000  41.6260000  18.5160000  50.5350000
  40.4910000  20.6080000  50.8550000  40.5120000  19.6280000  48.5590000
  41.9280000  18.5220000  51.9110000  41.9560000  17.7020000  49.9150000
  40.7520000  20.5830000  52.2530000  39.7530000  21.6500000  50.2920000
  39.7810000  20.6960000  48.0590000  40.9410000  18.5720000  47.6890000
  41.4700000  19.5140000  52.7160000  42.5360000  17.7240000  52.3370000
  40.4000000  21.3510000  52.9230000  39.4430000  21.7390000  48.9620000
  39.3950000  22.4460000  50.9460000  39.4290000  20.7090000  46.6740000
  40.5820000  18.5540000  46.3290000  41.5500000  17.7770000  48.0820000
  41.6800000  19.4600000  53.7650000  38.9330000  22.6250000  48.5960000
  39.8280000  19.6650000  45.8510000  38.6870000  21.7720000  46.1330000
  40.8720000  17.7350000  45.6750000  39.4230000  19.6910000  44.4290000
  38.3260000  21.8120000  44.8170000  38.3860000  22.5750000  46.7820000
  38.6660000  20.7560000  43.9220000  39.7730000  18.6880000  43.5430000
  37.7560000  22.6570000  44.4530000  38.2500000  20.8360000  42.5820000
  39.3560000  18.7500000  42.1980000  40.3870000  17.8640000  43.8750000
  38.6100000  19.8130000  41.7520000  37.6680000  21.6730000  42.2210000
  39.6150000  17.9490000  41.5250000  38.3110000  19.8450000  40.7190000
  40.8900000  25.7200000  49.9660000  41.6260000  24.6700000  50.5350000
  40.4910000  26.7620000  50.8550000  40.5120000  25.7820000  48.5590000
  41.9280000  24.6760000  51.9110000  41.9560000  23.8560000  49.9150000
  40.7520000  26.7370000  52.2530000  39.7530000  27.8040000  50.2920000
  39.7810000  26.8500000  48.0590000  40.9410000  24.7260000  47.6890000
  41.4700000  25.6680000  52.7160000  42.5360000  23.8780000  52.3370000
  40.4000000  27.5050000  52.9230000  39.4430000  27.8930000  48.9620000
  39.3950000  28.6000000  50.9460000  39.4290000  26.8630000  46.6740000
  40.5820000  24.7080000  46.3290000  41.5500000  23.9310000  48.0820000
  41.6800000  25.6140000  53.7650000  38.9330000  28.7790000  48.5960000
  39.8280000  25.8190000  45.8510000  38.6870000  27.9260000  46.1330000
  40.8720000  23.8890000  45.6750000  39.4230000  25.8450000  44.4290000
  38.3260000  27.9660000  44.8170000  38.3860000  28.7290000  46.7820000
  38.6660000  26.9100000  43.9220000  39.7730000  24.8420000  43.5430000
  37.7560000  28.8110000  44.4530000  38.2500000  26.9900000  42.5820000
  39.3560000  24.9040000  42.1980000  40.3870000  24.0180000  43.8750000
  38.6100000  25.9670000  41.7520000  37.6680000  27.8270000  42.2210000
  39.6150000  24.1030000  41.5250000  38.3110000  25.9990000  40.7190000
  40.8900000  31.8740000  49.9660000  41.6260000  30.8240000  50.5350000
  40.4910000  32.9160000  50.8550000  40.5120000  31.9360000  48.5590000
  41.9280000  30.8300000  51.9110000  41.9560000  30.0100000  49.9150000
  40.7520000  32.8910000  52.2530000  39.7530000  33.9580000  50.2920000
  39.7810000  33.0040000  48.0590000  40.9410000  30.8800000  47.6890000
  41.4700000  31.8220000  52.7160000  42.5360000  30.0320000  52.3370000
  40.4000000  33.6590000  52.9230000  39.4430000  34.0470000  48.9620000
  39.3950000  34.7540000  50.9460000  39.4290000  33.0170000  46.6740000
  40.5820000  30.8620000  46.3290000  41.5500000  30.0850000  48.0820000
  41.6800000  31.7680000  53.7650000  38.9330000  34.9330000  48.5960000
  39.8280000  31.9730000  45.8510000  38.6870000  34.0800000  46.1330000
  40.8720000  30.0430000  45.6750000  39.4230000  31.9990000  44.4290000
  38.3260000  34.1200000  44.8170000  38.3860000  34.8830000  46.7820000
  38.6660000  33.0640000  43.9220000  39.7730000  30.9960000  43.5430000
  37.7560000  34.9650000  44.4530000  38.2500000  33.1440000  42.5820000
  39.3560000  31.0580000  42.1980000  40.3870000  30.1720000  43.8750000
  38.6100000  32.1210000  41.7520000  37.6680000  33.9810000  42.2210000
  39.6150000  30.2570000  41.5250000  38.3110000  32.1530000  40.7190000
  40.8900000  38.0280000  49.9660000  41.6260000  36.9780000  50.5350000
  40.4910000  39.0700000  50.8550000  40.5120000  38.0900000  48.5590000
  41.9280000  36.9840000  51.9110000  41.9560000  36.1640000  49.9150000
  40.7520000  39.0450000  52.2530000  39.7530000  40.1120000  50.2920000
  39.7810000  39.1580000  48.0590000  40.9410000  37.0340000  47.6890000
  41.4700000  37.9760000  52.7160000  42.5360000  36.1860000  52.3370000
  40.4000000  39.8130000  52.9230000  39.4430000  40.2010000  48.9620000
  39.3950000  40.9080000  50.9460000  39.4290000  39.1710000  46.6740000
  40.5820000  37.0160000  46.3290000  41.5500000  36.2390000  48.0820000
  41.6800000  37.9220000  53.7650000  38.9330000  41.0870000  48.5960000
  39.8280000  38.1270000  45.8510000  38.6870000  40.2340000  46.1330000
  40.8720000  36.1970000  45.6750000  39.4230000  38.1530000  44.4290000
  38.3260000  40.2740000  44.8170000  38.3860000  41.0370000  46.7820000
  38.6660000  39.2180000  43.9220000  39.7730000  37.1500000  43.5430000
  37.7560000  41.1190000  44.4530000  38.2500000  39.2980000  42.5820000
  39.3560000  37.2120000  42.1980000  40.3870000  36.3260000  43.8750000
  38.6100000  38.2750000  41.7520000  37.6680000  40.1350000  42.2210000
  39.6150000  36.4110000  41.5250000  38.3110000  38.3070000  40.7190000
  41.2150000   7.2580000   9.4220000  41.9520000   6.2080000   9.9910000
  40.8160000   8.3000000  10.3120000  40.8370000   7.3200000   8.0150000
  42.2540000   6.2140000  11.3670000  42.2820000   5.3940000   9.3710000
  41.0770000   8.2750000  11.7090000  40.0790000   9.3420000   9.7480000
  40.1070000   8.3880000   7.5150000  41.2670000   6.2640000   7.1450000
  41.7950000   7.2060000  12.1730000  42.8620000   5.4160000  11.7930000
  40.7260000   9.0430000  12.3790000  39.7690000   9.4310000   8.4180000
  39.7210000  10.1380000  10.4020000  39.7540000   8.4010000   6.1300000
  40.9080000   6.2460000   5.7860000  41.8760000   5.4690000   7.5380000
  42.0060000   7.1520000  13.2210000  39.2590000  10.3170000   8.0520000
  40.1530000   7.3570000   5.3070000  39.0120000   9.4640000   5.5900000
  41.1980000   5.4270000   5.1310000  39.7480000   7.3830000   3.8850000
  38.6510000   9.5040000   4.2730000  38.7110000  10.2670000   6.2380000
  38.9920000   8.4480000   3.3790000  40.0980000   6.3800000   2.9990000
  38.0810000  10.3490000   3.9100000  38.5750000   8.5280000   2.0380000
  39.6820000   6.4420000   1.6540000  40.7130000   5.5560000   3.3310000
  38.9360000   7.5050000   1.2080000  37.9940000   9.3650000   1.6770000
  39.9410000   5.6410000   0.9810000  38.6370000   7.5370000   0.1760000
  41.1070000   7.2580000  22.9370000  41.8430000   6.2080000  23.5060000
  40.7080000   8.3000000  23.8260000  40.7290000   7.3200000  21.5300000
  42.1450000   6.2140000  24.8820000  42.1730000   5.3940000  22.8860000
  40.9690000   8.2750000  25.2240000  39.9700000   9.3420000  23.2630000
  39.9980000   8.3880000  21.0300000  41.1580000   6.2640000  20.6600000
  41.6870000   7.2060000  25.6870000  42.7530000   5.4160000  25.3070000
  40.6170000   9.0430000  25.8940000  39.6600000   9.4310000  21.9330000
  39.6120000  10.1380000  23.9170000  39.6460000   8.4010000  19.6450000
  40.7990000   6.2460000  19.3000000  41.7670000   5.4690000  21.0530000
  41.8970000   7.1520000  26.7360000  39.1500000  10.3170000  21.5670000
  40.0450000   7.3570000  18.8220000  38.9040000   9.4640000  19.1040000
  41.0890000   5.4270000  18.6460000  39.6400000   7.3830000  17.4000000
  38.5430000   9.5040000  17.7880000  38.6030000  10.2670000  19.7530000
  38.8830000   8.4480000  16.8930000  39.9900000   6.3800000  16.5130000
  37.9730000  10.3490000  17.4240000  38.4670000   8.5280000  15.5530000
  39.5730000   6.4420000  15.1690000  40.6040000   5.5560000  16.8460000
  38.8270000   7.5050000  14.7230000  37.8850000   9.3650000  15.1920000
  39.8320000   5.6410000  14.4960000  38.5280000   7.5370000  13.6900000
  40.9980000   7.2580000  36.4510000  41.7350000   6.2080000  37.0200000
  40.5990000   8.3000000  37.3410000  40.6200000   7.3200000  35.0450000
  42.0370000   6.2140000  38.3960000  42.0650000   5.3940000  36.4000000
  40.8600000   8.2750000  38.7380000  39.8620000   9.3420000  36.7770000
  39.8900000   8.3880000  34.5450000  41.0500000   6.2640000  34.1740000
  41.5780000   7.2060000  39.2020000  42.6450000   5.4160000  38.8220000
  40.5090000   9.0430000  39.4080000  39.5520000   9.4310000  35.4470000
  39.5040000  10.1380000  37.4310000  39.5370000   8.4010000  33.1590000
  40.6910000   6.2460000  32.8150000  41.6590000   5.4690000  34.5680000
  41.7890000   7.1520000  40.2500000  39.0420000  10.3170000  35.0810000
  39.9360000   7.3570000  32.3360000  38.7950000   9.4640000  32.6190000
  40.9810000   5.4270000  32.1610000  39.5310000   7.3830000  30.9150000
  38.4340000   9.5040000  31.3020000  38.4940000  10.2670000  33.2670000
  38.7750000   8.4480000  30.4080000  39.8810000   6.3800000  30.0280000
  37.8640000  10.3490000  30.9390000  38.3580000   8.5280000  29.0670000
  39.4650000   6.4420000  28.6830000  40.4960000   5.5560000  30.3600000
  38.7190000   7.5050000  28.2370000  37.7770000   9.3650000  28.7060000
  39.7240000   5.6410000  28.0100000  38.4200000   7.5370000  27.2050000
  40.7810000   7.2580000  63.4810000  41.5180000   6.2080000  64.0500000
  40.3820000   8.3000000  64.3700000  40.4030000   7.3200000  62.0740000
  41.8200000   6.2140000  65.4250000  41.8470000   5.3940000  63.4290000
  40.6430000   8.2750000  65.7670000  39.6450000   9.3420000  63.8060000
  39.6730000   8.3880000  61.5740000  40.8330000   6.2640000  61.2030000
  41.3610000   7.2060000  66.2310000  42.4280000   5.4160000  65.8510000
  40.2920000   9.0430000  66.4380000  39.3350000   9.4310000  62.4760000
  39.2870000  10.1380000  64.4600000  39.3200000   8.4010000  60.1880000
  40.4740000   6.2460000  59.8440000  41.4420000   5.4690000  61.5970000
  41.5720000   7.1520000  67.2800000  38.8250000  10.3170000  62.1100000
  39.7190000   7.3570000  59.3650000  38.5780000   9.4640000  59.6480000
  40.7640000   5.4270000  59.1900000  39.3140000   7.3830000  57.9440000
  38.2170000   9.5040000  58.3320000  38.2770000  10.2670000  60.2970000
  38.5580000   8.4480000  57.4370000  39.6640000   6.3800000  57.0570000
  37.6470000  10.3490000  57.9680000  38.1410000   8.5280000  56.0960000
  39.2480000   6.4420000  55.7120000  40.2790000   5.5560000  57.3900000
  38.5020000   7.5050000  55.2660000  37.5600000   9.3650000  55.7350000
  39.5070000   5.6410000  55.0390000  38.2030000   7.5370000  54.2340000
  41.2150000  13.4120000   9.4220000  41.9520000  12.3620000   9.9910000
  40.8160000  14.4540000  10.3120000  40.8370000  13.4740000   8.0150000
  42.2540000  12.3680000  11.3670000  42.2820000  11.5480000   9.3710000
  41.0770000  14.4290000  11.7090000  40.0790000  15.4960000   9.7480000
  40.1070000  14.5420000   7.5150000  41.2670000  12.4180000   7.1450000
  41.7950000  13.3600000  12.1730000  42.8620000  11.5700000  11.7930000
  40.7260000  15.1970000  12.3790000  39.7690000  15.5850000   8.4180000
  39.7210000  16.2920000  10.4020000  39.7540000  14.5550000   6.1300000
  40.9080000  12.4000000   5.7860000  41.8760000  11.6230000   7.5380000
  42.0060000  13.3060000  13.2210000  39.2590000  16.4710000   8.0520000
  40.1530000  13.5110000   5.3070000  39.0120000  15.6180000   5.5900000
  41.1980000  11.5810000   5.1310000  39.7480000  13.5370000   3.8850000
  38.6510000  15.6580000   4.2730000  38.7110000  16.4210000   6.2380000
  38.9920000  14.6020000   3.3790000  40.0980000  12.5340000   2.9990000
  38.0810000  16.5030000   3.9100000  38.5750000  14.6820000   2.0380000
  39.6820000  12.5960000   1.6540000  40.7130000  11.7100000   3.3310000
  38.9360000  13.6590000   1.2080000  37.9940000  15.5190000   1.6770000
  39.9410000  11.7950000   0.9810000  38.6370000  13.6910000   0.1760000
  41.1070000  13.4120000  22.9370000  41.8430000  12.3620000  23.5060000
  40.7080000  14.4540000  23.8260000  40.7290000  13.4740000  21.5300000
  42.1450000  12.3680000  24.8820000  42.1730000  11.5480000  22.8860000
  40.9690000  14.4290000  25.2240000  39.9700000  15.4960000  23.2630000
  39.9980000  14.5420000  21.0300000  41.1580000  12.4180000  20.6600000
  41.6870000  13.3600000  25.6870000  42.7530000  11.5700000  25.3070000
  40.6170000  15.1970000  25.8940000  39.6600000  15.5850000  21.9330000
  39.6120000  16.2920000  23.9170000  39.6460000  14.5550000  19.6450000
  40.7990000  12.4000000  19.3000000  41.7670000  11.6230000  21.0530000
  41.8970000  13.3060000  26.7360000  39.1500000  16.4710000  21.5670000
  40.0450000  13.5110000  18.8220000  38.9040000  15.6180000  19.1040000
  41.0890000  11.5810000  18.6460000  39.6400000  13.5370000  17.4000000
  38.5430000  15.6580000  17.7880000  38.6030000  16.4210000  19.7530000
  38.8830000  14.6020000  16.8930000  39.9900000  12.5340000  16.5130000
  37.9730000  16.5030000  17.4240000  38.4670000  14.6820000  15.5530000
  39.5730000  12.5960000  15.1690000  40.6040000  11.7100000  16.8460000
  38.8270000  13.6590000  14.7230000  37.8850000  15.5190000  15.1920000
  39.8320000  11.7950000  14.4960000  38.5280000  13.6910000  13.6900000
  40.9980000  13.4120000  36.4510000  41.7350000  12.3620000  37.0200000
  40.5990000  14.4540000  37.3410000  40.6200000  13.4740000  35.0450000
  42.0370000  12.3680000  38.3960000  42.0650000  11.5480000  36.4000000
  40.8600000  14.4290000  38.7380000  39.8620000  15.4960000  36.7770000
  39.8900000  14.5420000  34.5450000  41.0500000  12.4180000  34.1740000
  41.5780000  13.3600000  39.2020000  42.6450000  11.5700000  38.8220000
  40.5090000  15.1970000  39.4080000  39.5520000  15.5850000  35.4470000
  39.5040000  16.2920000  37.4310000  39.5370000  14.5550000  33.1590000
  40.6910000  12.4000000  32.8150000  41.6590000  11.6230000  34.5680000
  41.7890000  13.3060000  40.2500000  39.0420000  16.4710000  35.0810000
  39.9360000  13.5110000  32.3360000  38.7950000  15.6180000  32.6190000
  40.9810000  11.5810000  32.1610000  39.5310000  13.5370000  30.9150000
  38.4340000  15.6580000  31.3020000  38.4940000  16.4210000  33.2670000
  38.7750000  14.6020000  30.4080000  39.8810000  12.5340000  30.0280000
  37.8640000  16.5030000  30.9390000  38.3580000  14.6820000  29.0670000
  39.4650000  12.5960000  28.6830000  40.4960000  11.7100000  30.3600000
  38.7190000  13.6590000  28.2370000  37.7770000  15.5190000  28.7060000
  39.7240000  11.7950000  28.0100000  38.4200000  13.6910000  27.2050000
  40.7810000  13.4120000  63.4810000  41.5180000  12.3620000  64.0500000
  40.3820000  14.4540000  64.3700000  40.4030000  13.4740000  62.0740000
  41.8200000  12.3680000  65.4250000  41.8470000  11.5480000  63.4290000
  40.6430000  14.4290000  65.7670000  39.6450000  15.4960000  63.8060000
  39.6730000  14.5420000  61.5740000  40.8330000  12.4180000  61.2030000
  41.3610000  13.3600000  66.2310000  42.4280000  11.5700000  65.8510000
  40.2920000  15.1970000  66.4380000  39.3350000  15.5850000  62.4760000
  39.2870000  16.2920000  64.4600000  39.3200000  14.5550000  60.1880000
  40.4740000  12.4000000  59.8440000  41.4420000  11.6230000  61.5970000
  41.5720000  13.3060000  67.2800000  38.8250000  16.4710000  62.1100000
  39.7190000  13.5110000  59.3650000  38.5780000  15.6180000  59.6480000
  40.7640000  11.5810000  59.1900000  39.3140000  13.5370000  57.9440000
  38.2170000  15.6580000  58.3320000  38.2770000  16.4210000  60.2970000
  38.5580000  14.6020000  57.4370000  39.6640000  12.5340000  57.0570000
  37.6470000  16.5030000  57.9680000  38.1410000  14.6820000  56.0960000
  39.2480000  12.5960000  55.7120000  40.2790000  11.7100000  57.3900000
  38.5020000  13.6590000  55.2660000  37.5600000  15.5190000  55.7350000
  39.5070000  11.7950000  55.0390000  38.2030000  13.6910000  54.2340000
  41.2150000  19.5660000   9.4220000  41.9520000  18.5160000   9.9910000
  40.8160000  20.6080000  10.3120000  40.8370000  19.6280000   8.0150000
  42.2540000  18.5220000  11.3670000  42.2820000  17.7020000   9.3710000
  41.0770000  20.5830000  11.7090000  40.0790000  21.6500000   9.7480000
  40.1070000  20.6960000   7.5150000  41.2670000  18.5720000   7.1450000
  41.7950000  19.5140000  12.1730000  42.8620000  17.7240000  11.7930000
  40.7260000  21.3510000  12.3790000  39.7690000  21.7390000   8.4180000
  39.7210000  22.4460000  10.4020000  39.7540000  20.7090000   6.1300000
  40.9080000  18.5540000   5.7860000  41.8760000  17.7770000   7.5380000
  42.0060000  19.4600000  13.2210000  39.2590000  22.6250000   8.0520000
  40.1530000  19.6650000   5.3070000  39.0120000  21.7720000   5.5900000
  41.1980000  17.7350000   5.1310000  39.7480000  19.6910000   3.8850000
  38.6510000  21.8120000   4.2730000  38.7110000  22.5750000   6.2380000
  38.9920000  20.7560000   3.3790000  40.0980000  18.6880000   2.9990000
  38.0810000  22.6570000   3.9100000  38.5750000  20.8360000   2.0380000
  39.6820000  18.7500000   1.6540000  40.7130000  17.8640000   3.3310000
  38.9360000  19.8130000   1.2080000  37.9940000  21.6730000   1.6770000
  39.9410000  17.9490000   0.9810000  38.6370000  19.8450000   0.1760000
  41.1070000  19.5660000  22.9370000  41.8430000  18.5160000  23.5060000
  40.7080000  20.6080000  23.8260000  40.7290000  19.6280000  21.5300000
  42.1450000  18.5220000  24.8820000  42.1730000  17.7020000  22.8860000
  40.9690000  20.5830000  25.2240000  39.9700000  21.6500000  23.2630000
  39.9980000  20.6960000  21.0300000  41.1580000  18.5720000  20.6600000
  41.6870000  19.5140000  25.6870000  42.7530000  17.7240000  25.3070000
  40.6170000  21.3510000  25.8940000  39.6600000  21.7390000  21.9330000
  39.6120000  22.4460000  23.9170000  39.6460000  20.7090000  19.6450000
  40.7990000  18.5540000  19.3000000  41.7670000  17.7770000  21.0530000
  41.8970000  19.4600000  26.7360000  39.1500000  22.6250000  21.5670000
  40.0450000  19.6650000  18.8220000  38.9040000  21.7720000  19.1040000
  41.0890000  17.7350000  18.6460000  39.6400000  19.6910000  17.4000000
  38.5430000  21.8120000  17.7880000  38.6030000  22.5750000  19.7530000
  38.8830000  20.7560000  16.8930000  39.9900000  18.6880000  16.5130000
  37.9730000  22.6570000  17.4240000  38.4670000  20.8360000  15.5530000
  39.5730000  18.7500000  15.1690000  40.6040000  17.8640000  16.8460000
  38.8270000  19.8130000  14.7230000  37.8850000  21.6730000  15.1920000
  39.8320000  17.9490000  14.4960000  38.5280000  19.8450000  13.6900000
  40.9980000  19.5660000  36.4510000  41.7350000  18.5160000  37.0200000
  40.5990000  20.6080000  37.3410000  40.6200000  19.6280000  35.0450000
  42.0370000  18.5220000  38.3960000  42.0650000  17.7020000  36.4000000
  40.8600000  20.5830000  38.7380000  39.8620000  21.6500000  36.7770000
  39.8900000  20.6960000  34.5450000  41.0500000  18.5720000  34.1740000
  41.5780000  19.5140000  39.2020000  42.6450000  17.7240000  38.8220000
  40.5090000  21.3510000  39.4080000  39.5520000  21.7390000  35.4470000
  39.5040000  22.4460000  37.4310000  39.5370000  20.7090000  33.1590000
  40.6910000  18.5540000  32.8150000  41.6590000  17.7770000  34.5680000
  41.7890000  19.4600000  40.2500000  39.0420000  22.6250000  35.0810000
  39.9360000  19.6650000  32.3360000  38.7950000  21.7720000  32.6190000
  40.9810000  17.7350000  32.1610000  39.5310000  19.6910000  30.9150000
  38.4340000  21.8120000  31.3020000  38.4940000  22.5750000  33.2670000
  38.7750000  20.7560000  30.4080000  39.8810000  18.6880000  30.0280000
  37.8640000  22.6570000  30.9390000  38.3580000  20.8360000  29.0670000
  39.4650000  18.7500000  28.6830000  40.4960000  17.8640000  30.3600000
  38.7190000  19.8130000  28.2370000  37.7770000  21.6730000  28.7060000
  39.7240000  17.9490000  28.0100000  38.4200000  19.8450000  27.2050000
  40.7810000  19.5660000  63.4810000  41.5180000  18.5160000  64.0500000
  40.3820000  20.6080000  64.3700000  40.4030000  19.6280000  62.0740000
  41.8200000  18.5220000  65.4250000  41.8470000  17.7020000  63.4290000
  40.6430000  20.5830000  65.7670000  39.6450000  21.6500000  63.8060000
  39.6730000  20.6960000  61.5740000  40.8330000  18.5720000  61.2030000
  41.3610000  19.5140000  66.2310000  42.4280000  17.7240000  65.8510000
  40.2920000  21.3510000  66.4380000  39.3350000  21.7390000  62.4760000
  39.2870000  22.4460000  64.4600000  39.3200000  20.7090000  60.1880000
  40.4740000  18.5540000  59.8440000  41.4420000  17.7770000  61.5970000
  41.5720000  19.4600000  67.2800000  38.8250000  22.6250000  62.1100000
  39.7190000  19.6650000  59.3650000  38.5780000  21.7720000  59.6480000
  40.7640000  17.7350000  59.1900000  39.3140000  19.6910000  57.9440000
  38.2170000  21.8120000  58.3320000  38.2770000  22.5750000  60.2970000
  38.5580000  20.7560000  57.4370000  39.6640000  18.6880000  57.0570000
  37.6470000  22.6570000  57.9680000  38.1410000  20.8360000  56.0960000
  39.2480000  18.7500000  55.7120000  40.2790000  17.8640000  57.3900000
  38.5020000  19.8130000  55.2660000  37.5600000  21.6730000  55.7350000
  39.5070000  17.9490000  55.0390000  38.2030000  19.8450000  54.2340000
  41.2150000  25.7200000   9.4220000  41.9520000  24.6700000   9.9910000
  40.8160000  26.7620000  10.3120000  40.8370000  25.7820000   8.0150000
  42.2540000  24.6760000  11.3670000  42.2820000  23.8560000   9.3710000
  41.0770000  26.7370000  11.7090000  40.0790000  27.8040000   9.7480000
  40.1070000  26.8500000   7.5150000  41.2670000  24.7260000   7.1450000
  41.7950000  25.6680000  12.1730000  42.8620000  23.8780000  11.7930000
  40.7260000  27.5050000  12.3790000  39.7690000  27.8930000   8.4180000
  39.7210000  28.6000000  10.4020000  39.7540000  26.8630000   6.1300000
  40.9080000  24.7080000   5.7860000  41.8760000  23.9310000   7.5380000
  42.0060000  25.6140000  13.2210000  39.2590000  28.7790000   8.0520000
  40.1530000  25.8190000   5.3070000  39.0120000  27.9260000   5.5900000
  41.1980000  23.8890000   5.1310000  39.7480000  25.8450000   3.8850000
  38.6510000  27.9660000   4.2730000  38.7110000  28.7290000   6.2380000
  38.9920000  26.9100000   3.3790000  40.0980000  24.8420000   2.9990000
  38.0810000  28.8110000   3.9100000  38.5750000  26.9900000   2.0380000
  39.6820000  24.9040000   1.6540000  40.7130000  24.0180000   3.3310000
  38.9360000  25.9670000   1.2080000  37.9940000  27.8270000   1.6770000
  39.9410000  24.1030000   0.9810000  38.6370000  25.9990000   0.1760000
  41.1070000  25.7200000  22.9370000  41.8430000  24.6700000  23.5060000
  40.7080000  26.7620000  23.8260000  40.7290000  25.7820000  21.5300000
  42.1450000  24.6760000  24.8820000  42.1730000  23.8560000  22.8860000
  40.9690000  26.7370000  25.2240000  39.9700000  27.8040000  23.2630000
  39.9980000  26.8500000  21.0300000  41.1580000  24.7260000  20.6600000
  41.6870000  25.6680000  25.6870000  42.7530000  23.8780000  25.3070000
  40.6170000  27.5050000  25.8940000  39.6600000  27.8930000  21.9330000
  39.6120000  28.6000000  23.9170000  39.6460000  26.8630000  19.6450000
  40.7990000  24.7080000  19.3000000  41.7670000  23.9310000  21.0530000
  41.8970000  25.6140000  26.7360000  39.1500000  28.7790000  21.5670000
  40.0450000  25.8190000  18.8220000  38.9040000  27.9260000  19.1040000
  41.0890000  23.8890000  18.6460000  39.6400000  25.8450000  17.4000000
  38.5430000  27.9660000  17.7880000  38.6030000  28.7290000  19.7530000
  38.8830000  26.9100000  16.8930000  39.9900000  24.8420000  16.5130000
  37.9730000  28.8110000  17.4240000  38.4670000  26.9900000  15.5530000
  39.5730000  24.9040000  15.1690000  40.6040000  24.0180000  16.8460000
  38.8270000  25.9670000  14.7230000  37.8850000  27.8270000  15.1920000
  39.8320000  24.1030000  14.4960000  38.5280000  25.9990000  13.6900000
  40.9980000  25.7200000  36.4510000  41.7350000  24.6700000  37.0200000
  40.5990000  26.7620000  37.3410000  40.6200000  25.7820000  35.0450000
  42.0370000  24.6760000  38.3960000  42.0650000  23.8560000  36.4000000
  40.8600000  26.7370000  38.7380000  39.8620000  27.8040000  36.7770000
  39.8900000  26.8500000  34.5450000  41.0500000  24.7260000  34.1740000
  41.5780000  25.6680000  39.2020000  42.6450000  23.8780000  38.8220000
  40.5090000  27.5050000  39.4080000  39.5520000  27.8930000  35.4470000
  39.5040000  28.6000000  37.4310000  39.5370000  26.8630000  33.1590000
  40.6910000  24.7080000  32.8150000  41.6590000  23.9310000  34.5680000
  41.7890000  25.6140000  40.2500000  39.0420000  28.7790000  35.0810000
  39.9360000  25.8190000  32.3360000  38.7950000  27.9260000  32.6190000
  40.9810000  23.8890000  32.1610000  39.5310000  25.8450000  30.9150000
  38.4340000  27.9660000  31.3020000  38.4940000  28.7290000  33.2670000
  38.7750000  26.9100000  30.4080000  39.8810000  24.8420000  30.0280000
  37.8640000  28.8110000  30.9390000  38.3580000  26.9900000  29.0670000
  39.4650000  24.9040000  28.6830000  40.4960000  24.0180000  30.3600000
  38.7190000  25.9670000  28.2370000  37.7770000  27.8270000  28.7060000
  39.7240000  24.1030000  28.0100000  38.4200000  25.9990000  27.2050000
  40.7810000  25.7200000  63.4810000  41.5180000  24.6700000  64.0500000
  40.3820000  26.7620000  64.3700000  40.4030000  25.7820000  62.0740000
  41.8200000  24.6760000  65.4250000  41.8470000  23.8560000  63.4290000
  40.6430000  26.7370000  65.7670000  39.6450000  27.8040000  63.8060000
  39.6730000  26.8500000  61.5740000  40.8330000  24.7260000  61.2030000
  41.3610000  25.6680000  66.2310000  42.4280000  23.8780000  65.8510000
  40.2920000  27.5050000  66.4380000  39.3350000  27.8930000  62.4760000
  39.2870000  28.6000000  64.4600000  39.3200000  26.8630000  60.1880000
  40.4740000  24.7080000  59.8440000  41.4420000  23.9310000  61.5970000
  41.5720000  25.6140000  67.2800000  38.8250000  28.7790000  62.1100000
  39.7190000  25.8190000  59.3650000  38.5780000  27.9260000  59.6480000
  40.7640000  23.8890000  59.1900000  39.3140000  25.8450000  57.9440000
  38.2170000  27.9660000  58.3320000  38.2770000  28.7290000  60.2970000
  38.5580000  26.9100000  57.4370000  39.6640000  24.8420000  57.0570000
  37.6470000  28.8110000  57.9680000  38.1410000  26.9900000  56.0960000
  39.2480000  24.9040000  55.7120000  40.2790000  24.0180000  57.3900000
  38.5020000  25.9670000  55.2660000  37.5600000  27.8270000  55.7350000
  39.5070000  24.1030000  55.0390000  38.2030000  25.9990000  54.2340000
  41.2150000  31.8740000   9.4220000  41.9520000  30.8240000   9.9910000
  40.8160000  32.9160000  10.3120000  40.8370000  31.9360000   8.0150000
  42.2540000  30.8300000  11.3670000  42.2820000  30.0100000   9.3710000
  41.0770000  32.8910000  11.7090000  40.0790000  33.9580000   9.7480000
  40.1070000  33.0040000   7.5150000  41.2670000  30.8800000   7.1450000
  41.7950000  31.8220000  12.1730000  42.8620000  30.0320000  11.7930000
  40.7260000  33.6590000  12.3790000  39.7690000  34.0470000   8.4180000
  39.7210000  34.7540000  10.4020000  39.7540000  33.0170000   6.1300000
  40.9080000  30.8620000   5.7860000  41.8760000  30.0850000   7.5380000
  42.0060000  31.7680000  13.2210000  39.2590000  34.9330000   8.0520000
  40.1530000  31.9730000   5.3070000  39.0120000  34.0800000   5.5900000
  41.1980000  30.0430000   5.1310000  39.7480000  31.9990000   3.8850000
  38.6510000  34.1200000   4.2730000  38.7110000  34.8830000   6.2380000
  38.9920000  33.0640000   3.3790000  40.0980000  30.9960000   2.9990000
  38.0810000  34.9650000   3.9100000  38.5750000  33.1440000   2.0380000
  39.6820000  31.0580000   1.6540000  40.7130000  30.1720000   3.3310000
  38.9360000  32.1210000   1.2080000  37.9940000  33.9810000   1.6770000
  39.9410000  30.2570000   0.9810000  38.6370000  32.1530000   0.1760000
  41.1070000  31.8740000  22.9370000  41.8430000  30.8240000  23.5060000
  40.7080000  32.9160000  23.8260000  40.7290000  31.9360000  21.5300000
  42.1450000  30.8300000  24.8820000  42.1730000  30.0100000  22.8860000
  40.9690000  32.8910000  25.2240000  39.9700000  33.9580000  23.2630000
  39.9980000  33.0040000  21.0300000  41.1580000  30.8800000  20.6600000
  41.6870000  31.8220000  25.6870000  42.7530000  30.0320000  25.3070000
  40.6170000  33.6590000  25.8940000  39.6600000  34.0470000  21.9330000
  39.6120000  34.7540000  23.9170000  39.6460000  33.0170000  19.6450000
  40.7990000  30.8620000  19.3000000  41.7670000  30.0850000  21.0530000
  41.8970000  31.7680000  26.7360000  39.1500000  34.9330000  21.5670000
  40.0450000  31.9730000  18.8220000  38.9040000  34.0800000  19.1040000
  41.0890000  30.0430000  18.6460000  39.6400000  31.9990000  17.4000000
  38.5430000  34.1200000  17.7880000  38.6030000  34.8830000  19.7530000
  38.8830000  33.0640000  16.8930000  39.9900000  30.9960000  16.5130000
  37.9730000  34.9650000  17.4240000  38.4670000  33.1440000  15.5530000
  39.5730000  31.0580000  15.1690000  40.6040000  30.1720000  16.8460000
  38.8270000  32.1210000  14.7230000  37.8850000  33.9810000  15.1920000
  39.8320000  30.2570000  14.4960000  38.5280000  32.1530000  13.6900000
  40.9980000  31.8740000  36.4510000  41.7350000  30.8240000  37.0200000
  40.5990000  32.9160000  37.3410000  40.6200000  31.9360000  35.0450000
  42.0370000  30.8300000  38.3960000  42.0650000  30.0100000  36.4000000
  40.8600000  32.8910000  38.7380000  39.8620000  33.9580000  36.7770000
  39.8900000  33.0040000  34.5450000  41.0500000  30.8800000  34.1740000
  41.5780000  31.8220000  39.2020000  42.6450000  30.0320000  38.8220000
  40.5090000  33.6590000  39.4080000  39.5520000  34.0470000  35.4470000
  39.5040000  34.7540000  37.4310000  39.5370000  33.0170000  33.1590000
  40.6910000  30.8620000  32.8150000  41.6590000  30.0850000  34.5680000
  41.7890000  31.7680000  40.2500000  39.0420000  34.9330000  35.0810000
  39.9360000  31.9730000  32.3360000  38.7950000  34.0800000  32.6190000
  40.9810000  30.0430000  32.1610000  39.5310000  31.9990000  30.9150000
  38.4340000  34.1200000  31.3020000  38.4940000  34.8830000  33.2670000
  38.7750000  33.0640000  30.4080000  39.8810000  30.9960000  30.0280000
  37.8640000  34.9650000  30.9390000  38.3580000  33.1440000  29.0670000
  39.4650000  31.0580000  28.6830000  40.4960000  30.1720000  30.3600000
  38.7190000  32.1210000  28.2370000  37.7770000  33.9810000  28.7060000
  39.7240000  30.2570000  28.0100000  38.4200000  32.1530000  27.2050000
  40.7810000  31.8740000  63.4810000  41.5180000  30.8240000  64.0500000
  40.3820000  32.9160000  64.3700000  40.4030000  31.9360000  62.0740000
  41.8200000  30.8300000  65.4250000  41.8470000  30.0100000  63.4290000
  40.6430000  32.8910000  65.7670000  39.6450000  33.9580000  63.8060000
  39.6730000  33.0040000  61.5740000  40.8330000  30.8800000  61.2030000
  41.3610000  31.8220000  66.2310000  42.4280000  30.0320000  65.8510000
  40.2920000  33.6590000  66.4380000  39.3350000  34.0470000  62.4760000
  39.2870000  34.7540000  64.4600000  39.3200000  33.0170000  60.1880000
  40.4740000  30.8620000  59.8440000  41.4420000  30.0850000  61.5970000
  41.5720000  31.7680000  67.2800000  38.8250000  34.9330000  62.1100000
  39.7190000  31.9730000  59.3650000  38.5780000  34.0800000  59.6480000
  40.7640000  30.0430000  59.1900000  39.3140000  31.9990000  57.9440000
  38.2170000  34.1200000  58.3320000  38.2770000  34.8830000  60.2970000
  38.5580000  33.0640000  57.4370000  39.6640000  30.9960000  57.0570000
  37.6470000  34.9650000  57.9680000  38.1410000  33.1440000  56.0960000
  39.2480000  31.0580000  55.7120000  40.2790000  30.1720000  57.3900000
  38.5020000  32.1210000  55.2660000  37.5600000  33.9810000  55.7350000
  39.5070000  30.2570000  55.0390000  38.2030000  32.1530000  54.2340000
  41.2150000   1.1040000   9.4220000  41.9520000   0.0540000   9.9910000
  40.8160000   2.1460000  10.3120000  40.8370000   1.1660000   8.0150000
  42.2540000   0.0600000  11.3670000  42.2820000  -0.7600000   9.3710000
  41.0770000   2.1210000  11.7090000  40.0790000   3.1880000   9.7480000
  40.1070000   2.2340000   7.5150000  41.2670000   0.1100000   7.1450000
  41.7950000   1.0520000  12.1730000  42.8620000  -0.7380000  11.7930000
  40.7260000   2.8890000  12.3790000  39.7690000   3.2770000   8.4180000
  39.7210000   3.9840000  10.4020000  39.7540000   2.2470000   6.1300000
  40.9080000   0.0920000   5.7860000  41.8760000  -0.6850000   7.5380000
  42.0060000   0.9980000  13.2210000  39.2590000   4.1630000   8.0520000
  40.1530000   1.2030000   5.3070000  39.0120000   3.3100000   5.5900000
  41.1980000  -0.7270000   5.1310000  39.7480000   1.2290000   3.8850000
  38.6510000   3.3500000   4.2730000  38.7110000   4.1130000   6.2380000
  38.9920000   2.2940000   3.3790000  40.0980000   0.2260000   2.9990000
  38.0810000   4.1950000   3.9100000  38.5750000   2.3740000   2.0380000
  39.6820000   0.2880000   1.6540000  40.7130000  -0.5980000   3.3310000
  38.9360000   1.3510000   1.2080000  37.9940000   3.2110000   1.6770000
  39.9410000  -0.5130000   0.9810000  38.6370000   1.3830000   0.1760000
  41.1070000   1.1040000  22.9370000  41.8430000   0.0540000  23.5060000
  40.7080000   2.1460000  23.8260000  40.7290000   1.1660000  21.5300000
  42.1450000   0.0600000  24.8820000  42.1730000  -0.7600000  22.8860000
  40.9690000   2.1210000  25.2240000  39.9700000   3.1880000  23.2630000
  39.9980000   2.2340000  21.0300000  41.1580000   0.1100000  20.6600000
  41.6870000   1.0520000  25.6870000  42.7530000  -0.7380000  25.3070000
  40.6170000   2.8890000  25.8940000  39.6600000   3.2770000  21.9330000
  39.6120000   3.9840000  23.9170000  39.6460000   2.2470000  19.6450000
  40.7990000   0.0920000  19.3000000  41.7670000  -0.6850000  21.0530000
  41.8970000   0.9980000  26.7360000  39.1500000   4.1630000  21.5670000
  40.0450000   1.2030000  18.8220000  38.9040000   3.3100000  19.1040000
  41.0890000  -0.7270000  18.6460000  39.6400000   1.2290000  17.4000000
  38.5430000   3.3500000  17.7880000  38.6030000   4.1130000  19.7530000
  38.8830000   2.2940000  16.8930000  39.9900000   0.2260000  16.5130000
  37.9730000   4.1950000  17.4240000  38.4670000   2.3740000  15.5530000
  39.5730000   0.2880000  15.1690000  40.6040000  -0.5980000  16.8460000
  38.8270000   1.3510000  14.7230000  37.8850000   3.2110000  15.1920000
  39.8320000  -0.5130000  14.4960000  38.5280000   1.3830000  13.6900000
  40.9980000   1.1040000  36.4510000  41.7350000   0.0540000  37.0200000
  40.5990000   2.1460000  37.3410000  40.6200000   1.1660000  35.0450000
  42.0370000   0.0600000  38.3960000  42.0650000  -0.7600000  36.4000000
  40.8600000   2.1210000  38.7380000  39.8620000   3.1880000  36.7770000
  39.8900000   2.2340000  34.5450000  41.0500000   0.1100000  34.1740000
  41.5780000   1.0520000  39.2020000  42.6450000  -0.7380000  38.8220000
  40.5090000   2.8890000  39.4080000  39.5520000   3.2770000  35.4470000
  39.5040000   3.9840000  37.4310000  39.5370000   2.2470000  33.1590000
  40.6910000   0.0920000  32.8150000  41.6590000  -0.6850000  34.5680000
  41.7890000   0.9980000  40.2500000  39.0420000   4.1630000  35.0810000
  39.9360000   1.2030000  32.3360000  38.7950000   3.3100000  32.6190000
  40.9810000  -0.7270000  32.1610000  39.5310000   1.2290000  30.9150000
  38.4340000   3.3500000  31.3020000  38.4940000   4.1130000  33.2670000
  38.7750000   2.2940000  30.4080000  39.8810000   0.2260000  30.0280000
  37.8640000   4.1950000  30.9390000  38.3580000   2.3740000  29.0670000
  39.4650000   0.2880000  28.6830000  40.4960000  -0.5980000  30.3600000
  38.7190000   1.3510000  28.2370000  37.7770000   3.2110000  28.7060000
  39.7240000  -0.5130000  28.0100000  38.4200000   1.3830000  27.2050000
  40.8900000   1.1040000  49.9660000  41.6260000   0.0540000  50.5350000
  40.4910000   2.1460000  50.8550000  40.5120000   1.1660000  48.5590000
  41.9280000   0.0600000  51.9110000  41.9560000  -0.7600000  49.9150000
  40.7520000   2.1210000  52.2530000  39.7530000   3.1880000  50.2920000
  39.7810000   2.2340000  48.0590000  40.9410000   0.1100000  47.6890000
  41.4700000   1.0520000  52.7160000  42.5360000  -0.7380000  52.3370000
  40.4000000   2.8890000  52.9230000  39.4430000   3.2770000  48.9620000
  39.3950000   3.9840000  50.9460000  39.4290000   2.2470000  46.6740000
  40.5820000   0.0920000  46.3290000  41.5500000  -0.6850000  48.0820000
  41.6800000   0.9980000  53.7650000  38.9330000   4.1630000  48.5960000
  39.8280000   1.2030000  45.8510000  38.6870000   3.3100000  46.1330000
  40.8720000  -0.7270000  45.6750000  39.4230000   1.2290000  44.4290000
  38.3260000   3.3500000  44.8170000  38.3860000   4.1130000  46.7820000
  38.6660000   2.2940000  43.9220000  39.7730000   0.2260000  43.5430000
  37.7560000   4.1950000  44.4530000  38.2500000   2.3740000  42.5820000
  39.3560000   0.2880000  42.1980000  40.3870000  -0.5980000  43.8750000
  38.6100000   1.3510000  41.7520000  37.6680000   3.2110000  42.2210000
  39.6150000  -0.5130000  41.5250000  38.3110000   1.3830000  40.7190000
  40.7810000   1.1040000  63.4810000  41.5180000   0.0540000  64.0500000
  40.3820000   2.1460000  64.3700000  40.4030000   1.1660000  62.0740000
  41.8200000   0.0600000  65.4250000  41.8470000  -0.7600000  63.4290000
  40.6430000   2.1210000  65.7670000  39.6450000   3.1880000  63.8060000
  39.6730000   2.2340000  61.5740000  40.8330000   0.1100000  61.2030000
  41.3610000   1.0520000  66.2310000  42.4280000  -0.7380000  65.8510000
  40.2920000   2.8890000  66.4380000  39.3350000   3.2770000  62.4760000
  39.2870000   3.9840000  64.4600000  39.3200000   2.2470000  60.1880000
  40.4740000   0.0920000  59.8440000  41.4420000  -0.6850000  61.5970000
  41.5720000   0.9980000  67.2800000  38.8250000   4.1630000  62.1100000
  39.7190000   1.2030000  59.3650000  38.5780000   3.3100000  59.6480000
  40.7640000  -0.7270000  59.1900000  39.3140000   1.2290000  57.9440000
  38.2170000   3.3500000  58.3320000  38.2770000   4.1130000  60.2970000
  38.5580000   2.2940000  57.4370000  39.6640000   0.2260000  57.0570000
  37.6470000   4.1950000  57.9680000  38.1410000   2.3740000  56.0960000
  39.2480000   0.2880000  55.7120000  40.2790000  -0.5980000  57.3900000
  38.5020000   1.3510000  55.2660000  37.5600000   3.2110000  55.7350000
  39.5070000  -0.5130000  55.0390000  38.2030000   1.3830000  54.2340000
  41.2150000  38.0280000   9.4220000  41.9520000  36.9780000   9.9910000
  40.8160000  39.0700000  10.3120000  40.8370000  38.0900000   8.0150000
  42.2540000  36.9840000  11.3670000  42.2820000  36.1640000   9.3710000
  41.0770000  39.0450000  11.7090000  40.0790000  40.1120000   9.7480000
  40.1070000  39.1580000   7.5150000  41.2670000  37.0340000   7.1450000
  41.7950000  37.9760000  12.1730000  42.8620000  36.1860000  11.7930000
  40.7260000  39.8130000  12.3790000  39.7690000  40.2010000   8.4180000
  39.7210000  40.9080000  10.4020000  39.7540000  39.1710000   6.1300000
  40.9080000  37.0160000   5.7860000  41.8760000  36.2390000   7.5380000
  42.0060000  37.9220000  13.2210000  39.2590000  41.0870000   8.0520000
  40.1530000  38.1270000   5.3070000  39.0120000  40.2340000   5.5900000
  41.1980000  36.1970000   5.1310000  39.7480000  38.1530000   3.8850000
  38.6510000  40.2740000   4.2730000  38.7110000  41.0370000   6.2380000
  38.9920000  39.2180000   3.3790000  40.0980000  37.1500000   2.9990000
  38.0810000  41.1190000   3.9100000  38.5750000  39.2980000   2.0380000
  39.6820000  37.2120000   1.6540000  40.7130000  36.3260000   3.3310000
  38.9360000  38.2750000   1.2080000  37.9940000  40.1350000   1.6770000
  39.9410000  36.4110000   0.9810000  38.6370000  38.3070000   0.1760000
  41.1070000  38.0280000  22.9370000  41.8430000  36.9780000  23.5060000
  40.7080000  39.0700000  23.8260000  40.7290000  38.0900000  21.5300000
  42.1450000  36.9840000  24.8820000  42.1730000  36.1640000  22.8860000
  40.9690000  39.0450000  25.2240000  39.9700000  40.1120000  23.2630000
  39.9980000  39.1580000  21.0300000  41.1580000  37.0340000  20.6600000
  41.6870000  37.9760000  25.6870000  42.7530000  36.1860000  25.3070000
  40.6170000  39.8130000  25.8940000  39.6600000  40.2010000  21.9330000
  39.6120000  40.9080000  23.9170000  39.6460000  39.1710000  19.6450000
  40.7990000  37.0160000  19.3000000  41.7670000  36.2390000  21.0530000
  41.8970000  37.9220000  26.7360000  39.1500000  41.0870000  21.5670000
  40.0450000  38.1270000  18.8220000  38.9040000  40.2340000  19.1040000
  41.0890000  36.1970000  18.6460000  39.6400000  38.1530000  17.4000000
  38.5430000  40.2740000  17.7880000  38.6030000  41.0370000  19.7530000
  38.8830000  39.2180000  16.8930000  39.9900000  37.1500000  16.5130000
  37.9730000  41.1190000  17.4240000  38.4670000  39.2980000  15.5530000
  39.5730000  37.2120000  15.1690000  40.6040000  36.3260000  16.8460000
  38.8270000  38.2750000  14.7230000  37.8850000  40.1350000  15.1920000
  39.8320000  36.4110000  14.4960000  38.5280000  38.3070000  13.6900000
  40.9980000  38.0280000  36.4510000  41.7350000  36.9780000  37.0200000
  40.5990000  39.0700000  37.3410000  40.6200000  38.0900000  35.0450000
  42.0370000  36.9840000  38.3960000  42.0650000  36.1640000  36.4000000
  40.8600000  39.0450000  38.7380000  39.8620000  40.1120000  36.7770000
  39.8900000  39.1580000  34.5450000  41.0500000  37.0340000  34.1740000
  41.5780000  37.9760000  39.2020000  42.6450000  36.1860000  38.8220000
  40.5090000  39.8130000  39.4080000  39.5520000  40.2010000  35.4470000
  39.5040000  40.9080000  37.4310000  39.5370000  39.1710000  33.1590000
  40.6910000  37.0160000  32.8150000  41.6590000  36.2390000  34.5680000
  41.7890000  37.9220000  40.2500000  39.0420000  41.0870000  35.0810000
  39.9360000  38.1270000  32.3360000  38.7950000  40.2340000  32.6190000
  40.9810000  36.1970000  32.1610000  39.5310000  38.1530000  30.9150000
  38.4340000  40.2740000  31.3020000  38.4940000  41.0370000  33.2670000
  38.7750000  39.2180000  30.4080000  39.8810000  37.1500000  30.0280000
  37.8640000  41.1190000  30.9390000  38.3580000  39.2980000  29.0670000
  39.4650000  37.2120000  28.6830000  40.4960000  36.3260000  30.3600000
  38.7190000  38.2750000  28.2370000  37.7770000  40.1350000  28.7060000
  39.7240000  36.4110000  28.0100000  38.4200000  38.3070000  27.2050000
  40.7810000  38.0280000  63.4810000  41.5180000  36.9780000  64.0500000
  40.3820000  39.0700000  64.3700000  40.4030000  38.0900000  62.0740000
  41.8200000  36.9840000  65.4250000  41.8470000  36.1640000  63.4290000
  40.6430000  39.0450000  65.7670000  39.6450000  40.1120000  63.8060000
  39.6730000  39.1580000  61.5740000  40.8330000  37.0340000  61.2030000
  41.3610000  37.9760000  66.2310000  42.4280000  36.1860000  65.8510000
  40.2920000  39.8130000  66.4380000  39.3350000  40.2010000  62.4760000
  39.2870000  40.9080000  64.4600000  39.3200000  39.1710000  60.1880000
  40.4740000  37.0160000  59.8440000  41.4420000  36.2390000  61.5970000
  41.5720000  37.9220000  67.2800000  38.8250000  41.0870000  62.1100000
  39.7190000  38.1270000  59.3650000  38.5780000  40.2340000  59.6480000
  40.7640000  36.1970000  59.1900000  39.3140000  38.1530000  57.9440000
  38.2170000  40.2740000  58.3320000  38.2770000  41.0370000  60.2970000
  38.5580000  39.2180000  57.4370000  39.6640000  37.1500000  57.0570000
  37.6470000  41.1190000  57.9680000  38.1410000  39.2980000  56.0960000
  39.2480000  37.2120000  55.7120000  40.2790000  36.3260000  57.3900000
  38.5020000  38.2750000  55.2660000  37.5600000  40.1350000  55.7350000
  39.5070000  36.4110000  55.0390000  38.2030000  38.3070000  54.2340000
  43.4760000   4.1810000   4.0920000  42.7400000   3.1310000   3.5230000
  43.8750000   5.2230000   3.2030000  43.8540000   4.2430000   5.4990000
  42.4380000   3.1370000   2.1470000  42.4100000   2.3170000   4.1440000
  43.6140000   5.1980000   1.8060000  44.6130000   6.2650000   3.7670000
  44.5850000   5.3110000   5.9990000  43.4250000   3.1870000   6.3690000
  42.8960000   4.1290000   1.3420000  41.8300000   2.3390000   1.7220000
  43.9660000   5.9660000   1.1350000  44.9230000   6.3540000   5.0960000
  44.9710000   7.0610000   3.1120000  44.9370000   5.3240000   7.3840000
  43.7840000   3.1690000   7.7290000  42.8160000   2.3920000   5.9760000
  42.6860000   4.0750000   0.2930000  45.4330000   7.2400000   5.4630000
  44.5380000   4.2800000   8.2070000  45.6790000   6.3870000   7.9250000
  43.4940000   2.3500000   8.3830000  44.9430000   4.3060000   9.6290000
  46.0400000   6.4270000   9.2410000  45.9800000   7.1900000   7.2760000
  45.7000000   5.3710000  10.1360000  44.5930000   3.3030000  10.5160000
  46.6100000   7.2720000   9.6050000  46.1160000   5.4510000  11.4770000
  45.0100000   3.3650000  11.8600000  43.9790000   2.4790000  10.1830000
  45.7560000   4.4280000  12.3060000  46.6980000   6.2880000  11.8370000
  44.7510000   2.5640000  12.5330000  46.0550000   4.4600000  13.3390000
  43.3680000   4.1810000  17.6070000  42.6310000   3.1310000  17.0380000
  43.7670000   5.2230000  16.7180000  43.7460000   4.2430000  19.0140000
  42.3290000   3.1370000  15.6620000  42.3010000   2.3170000  17.6580000
  43.5060000   5.1980000  15.3200000  44.5040000   6.2650000  17.2810000
  44.4760000   5.3110000  19.5140000  43.3160000   3.1870000  19.8840000
  42.7880000   4.1290000  14.8570000  41.7210000   2.3390000  15.2360000
  43.8570000   5.9660000  14.6500000  44.8140000   6.3540000  18.6110000
  44.8620000   7.0610000  16.6270000  44.8290000   5.3240000  20.8990000
  43.6750000   3.1690000  21.2440000  42.7070000   2.3920000  19.4910000
  42.5770000   4.0750000  13.8080000  45.3240000   7.2400000  18.9770000
  44.4300000   4.2800000  21.7220000  45.5710000   6.3870000  21.4400000
  43.3850000   2.3500000  21.8980000  44.8350000   4.3060000  23.1440000
  45.9320000   6.4270000  22.7560000  45.8720000   7.1900000  20.7910000
  45.5910000   5.3710000  23.6500000  44.4850000   3.3030000  24.0300000
  46.5020000   7.2720000  23.1190000  46.0080000   5.4510000  24.9910000
  44.9010000   3.3650000  25.3750000  43.8700000   2.4790000  23.6980000
  45.6470000   4.4280000  25.8210000  46.5890000   6.2880000  25.3520000
  44.6420000   2.5640000  26.0480000  45.9460000   4.4600000  26.8530000
  43.2590000   4.1810000  31.1210000  42.5230000   3.1310000  30.5520000
  43.6580000   5.2230000  30.2320000  43.6370000   4.2430000  32.5280000
  42.2210000   3.1370000  29.1770000  42.1930000   2.3170000  31.1730000
  43.3970000   5.1980000  28.8350000  44.3960000   6.2650000  30.7960000
  44.3680000   5.3110000  33.0280000  43.2080000   3.1870000  33.3990000
  42.6790000   4.1290000  28.3710000  41.6130000   2.3390000  28.7510000
  43.7490000   5.9660000  28.1640000  44.7060000   6.3540000  32.1250000
  44.7540000   7.0610000  30.1420000  44.7200000   5.3240000  34.4130000
  43.5670000   3.1690000  34.7580000  42.5990000   2.3920000  33.0050000
  42.4690000   4.0750000  27.3220000  45.2160000   7.2400000  32.4920000
  44.3210000   4.2800000  35.2370000  45.4620000   6.3870000  34.9540000
  43.2770000   2.3500000  35.4120000  44.7260000   4.3060000  36.6580000
  45.8230000   6.4270000  36.2700000  45.7630000   7.1900000  34.3050000
  45.4830000   5.3710000  37.1650000  44.3760000   3.3030000  37.5450000
  46.3930000   7.2720000  36.6340000  45.8990000   5.4510000  38.5060000
  44.7930000   3.3650000  38.8900000  43.7620000   2.4790000  37.2120000
  45.5390000   4.4280000  39.3350000  46.4810000   6.2880000  38.8670000
  44.5340000   2.5640000  39.5630000  45.8380000   4.4600000  40.3680000
  43.1510000   4.1810000  44.6360000  42.4140000   3.1310000  44.0670000
  43.5500000   5.2230000  43.7470000  43.5290000   4.2430000  46.0430000
  42.1120000   3.1370000  42.6910000  42.0840000   2.3170000  44.6870000
  43.2890000   5.1980000  42.3490000  44.2870000   6.2650000  44.3100000
  44.2590000   5.3110000  46.5430000  43.0990000   3.1870000  46.9130000
  42.5710000   4.1290000  41.8860000  41.5040000   2.3390000  42.2650000
  43.6400000   5.9660000  41.6790000  44.5970000   6.3540000  45.6400000
  44.6450000   7.0610000  43.6560000  44.6120000   5.3240000  47.9280000
  43.4580000   3.1690000  48.2730000  42.4900000   2.3920000  46.5200000
  42.3600000   4.0750000  40.8370000  45.1070000   7.2400000  46.0060000
  44.2130000   4.2800000  48.7510000  45.3540000   6.3870000  48.4690000
  43.1680000   2.3500000  48.9270000  44.6170000   4.3060000  50.1730000
  45.7150000   6.4270000  49.7850000  45.6550000   7.1900000  47.8200000
  45.3740000   5.3710000  50.6800000  44.2680000   3.3030000  51.0590000
  46.2850000   7.2720000  50.1480000  45.7910000   5.4510000  52.0200000
  44.6840000   3.3650000  52.4040000  43.6530000   2.4790000  50.7270000
  45.4300000   4.4280000  52.8500000  46.3720000   6.2880000  52.3810000
  44.4250000   2.5640000  53.0770000  45.7290000   4.4600000  53.8830000
  43.4760000  10.3350000   4.0920000  42.7400000   9.2850000   3.5230000
  43.8750000  11.3770000   3.2030000  43.8540000  10.3970000   5.4990000
  42.4380000   9.2910000   2.1470000  42.4100000   8.4710000   4.1440000
  43.6140000  11.3520000   1.8060000  44.6130000  12.4190000   3.7670000
  44.5850000  11.4650000   5.9990000  43.4250000   9.3410000   6.3690000
  42.8960000  10.2830000   1.3420000  41.8300000   8.4930000   1.7220000
  43.9660000  12.1200000   1.1350000  44.9230000  12.5080000   5.0960000
  44.9710000  13.2150000   3.1120000  44.9370000  11.4780000   7.3840000
  43.7840000   9.3230000   7.7290000  42.8160000   8.5460000   5.9760000
  42.6860000  10.2290000   0.2930000  45.4330000  13.3940000   5.4630000
  44.5380000  10.4340000   8.2070000  45.6790000  12.5410000   7.9250000
  43.4940000   8.5040000   8.3830000  44.9430000  10.4600000   9.6290000
  46.0400000  12.5810000   9.2410000  45.9800000  13.3440000   7.2760000
  45.7000000  11.5250000  10.1360000  44.5930000   9.4570000  10.5160000
  46.6100000  13.4260000   9.6050000  46.1160000  11.6050000  11.4770000
  45.0100000   9.5190000  11.8600000  43.9790000   8.6330000  10.1830000
  45.7560000  10.5820000  12.3060000  46.6980000  12.4420000  11.8370000
  44.7510000   8.7180000  12.5330000  46.0550000  10.6140000  13.3390000
  43.3680000  10.3350000  17.6070000  42.6310000   9.2850000  17.0380000
  43.7670000  11.3770000  16.7180000  43.7460000  10.3970000  19.0140000
  42.3290000   9.2910000  15.6620000  42.3010000   8.4710000  17.6580000
  43.5060000  11.3520000  15.3200000  44.5040000  12.4190000  17.2810000
  44.4760000  11.4650000  19.5140000  43.3160000   9.3410000  19.8840000
  42.7880000  10.2830000  14.8570000  41.7210000   8.4930000  15.2360000
  43.8570000  12.1200000  14.6500000  44.8140000  12.5080000  18.6110000
  44.8620000  13.2150000  16.6270000  44.8290000  11.4780000  20.8990000
  43.6750000   9.3230000  21.2440000  42.7070000   8.5460000  19.4910000
  42.5770000  10.2290000  13.8080000  45.3240000  13.3940000  18.9770000
  44.4300000  10.4340000  21.7220000  45.5710000  12.5410000  21.4400000
  43.3850000   8.5040000  21.8980000  44.8350000  10.4600000  23.1440000
  45.9320000  12.5810000  22.7560000  45.8720000  13.3440000  20.7910000
  45.5910000  11.5250000  23.6500000  44.4850000   9.4570000  24.0300000
  46.5020000  13.4260000  23.1190000  46.0080000  11.6050000  24.9910000
  44.9010000   9.5190000  25.3750000  43.8700000   8.6330000  23.6980000
  45.6470000  10.5820000  25.8210000  46.5890000  12.4420000  25.3520000
  44.6420000   8.7180000  26.0480000  45.9460000  10.6140000  26.8530000
  43.1510000  10.3350000  44.6360000  42.4140000   9.2850000  44.0670000
  43.5500000  11.3770000  43.7470000  43.5290000  10.3970000  46.0430000
  42.1120000   9.2910000  42.6910000  42.0840000   8.4710000  44.6870000
  43.2890000  11.3520000  42.3490000  44.2870000  12.4190000  44.3100000
  44.2590000  11.4650000  46.5430000  43.0990000   9.3410000  46.9130000
  42.5710000  10.2830000  41.8860000  41.5040000   8.4930000  42.2650000
  43.6400000  12.1200000  41.6790000  44.5970000  12.5080000  45.6400000
  44.6450000  13.2150000  43.6560000  44.6120000  11.4780000  47.9280000
  43.4580000   9.3230000  48.2730000  42.4900000   8.5460000  46.5200000
  42.3600000  10.2290000  40.8370000  45.1070000  13.3940000  46.0060000
  44.2130000  10.4340000  48.7510000  45.3540000  12.5410000  48.4690000
  43.1680000   8.5040000  48.9270000  44.6170000  10.4600000  50.1730000
  45.7150000  12.5810000  49.7850000  45.6550000  13.3440000  47.8200000
  45.3740000  11.5250000  50.6800000  44.2680000   9.4570000  51.0590000
  46.2850000  13.4260000  50.1480000  45.7910000  11.6050000  52.0200000
  44.6840000   9.5190000  52.4040000  43.6530000   8.6330000  50.7270000
  45.4300000  10.5820000  52.8500000  46.3720000  12.4420000  52.3810000
  44.4250000   8.7180000  53.0770000  45.7290000  10.6140000  53.8830000
  43.0420000   4.1810000  58.1500000  42.3060000   3.1310000  57.5820000
  43.4410000   5.2230000  57.2610000  43.4200000   4.2430000  59.5570000
  42.0040000   3.1370000  56.2060000  41.9760000   2.3170000  58.2020000
  43.1800000   5.1980000  55.8640000  44.1790000   6.2650000  57.8250000
  44.1510000   5.3110000  60.0570000  42.9910000   3.1870000  60.4280000
  42.4620000   4.1290000  55.4000000  41.3960000   2.3390000  55.7800000
  43.5320000   5.9660000  55.1930000  44.4890000   6.3540000  59.1550000
  44.5370000   7.0610000  57.1710000  44.5030000   5.3240000  61.4430000
  43.3500000   3.1690000  61.7870000  42.3820000   2.3920000  60.0340000
  42.2520000   4.0750000  54.3520000  44.9990000   7.2400000  59.5210000
  44.1040000   4.2800000  62.2660000  45.2450000   6.3870000  61.9830000
  43.0600000   2.3500000  62.4410000  44.5090000   4.3060000  63.6870000
  45.6060000   6.4270000  63.3000000  45.5460000   7.1900000  61.3340000
  45.2660000   5.3710000  64.1940000  44.1590000   3.3030000  64.5740000
  46.1760000   7.2720000  63.6630000  45.6820000   5.4510000  65.5350000
  44.5760000   3.3650000  65.9190000  43.5450000   2.4790000  64.2410000
  45.3220000   4.4280000  66.3650000  46.2640000   6.2880000  65.8960000
  44.3170000   2.5640000  66.5920000  45.6210000   4.4600000  67.3970000
  43.4760000  16.4890000   4.0920000  42.7400000  15.4390000   3.5230000
  43.8750000  17.5310000   3.2030000  43.8540000  16.5510000   5.4990000
  42.4380000  15.4450000   2.1470000  42.4100000  14.6250000   4.1440000
  43.6140000  17.5060000   1.8060000  44.6130000  18.5730000   3.7670000
  44.5850000  17.6190000   5.9990000  43.4250000  15.4950000   6.3690000
  42.8960000  16.4370000   1.3420000  41.8300000  14.6470000   1.7220000
  43.9660000  18.2740000   1.1350000  44.9230000  18.6620000   5.0960000
  44.9710000  19.3690000   3.1120000  44.9370000  17.6320000   7.3840000
  43.7840000  15.4770000   7.7290000  42.8160000  14.7000000   5.9760000
  42.6860000  16.3830000   0.2930000  45.4330000  19.5480000   5.4630000
  44.5380000  16.5880000   8.2070000  45.6790000  18.6950000   7.9250000
  43.4940000  14.6580000   8.3830000  44.9430000  16.6140000   9.6290000
  46.0400000  18.7350000   9.2410000  45.9800000  19.4980000   7.2760000
  45.7000000  17.6790000  10.1360000  44.5930000  15.6110000  10.5160000
  46.6100000  19.5800000   9.6050000  46.1160000  17.7590000  11.4770000
  45.0100000  15.6730000  11.8600000  43.9790000  14.7870000  10.1830000
  45.7560000  16.7360000  12.3060000  46.6980000  18.5960000  11.8370000
  44.7510000  14.8720000  12.5330000  46.0550000  16.7680000  13.3390000
  43.3680000  16.4890000  17.6070000  42.6310000  15.4390000  17.0380000
  43.7670000  17.5310000  16.7180000  43.7460000  16.5510000  19.0140000
  42.3290000  15.4450000  15.6620000  42.3010000  14.6250000  17.6580000
  43.5060000  17.5060000  15.3200000  44.5040000  18.5730000  17.2810000
  44.4760000  17.6190000  19.5140000  43.3160000  15.4950000  19.8840000
  42.7880000  16.4370000  14.8570000  41.7210000  14.6470000  15.2360000
  43.8570000  18.2740000  14.6500000  44.8140000  18.6620000  18.6110000
  44.8620000  19.3690000  16.6270000  44.8290000  17.6320000  20.8990000
  43.6750000  15.4770000  21.2440000  42.7070000  14.7000000  19.4910000
  42.5770000  16.3830000  13.8080000  45.3240000  19.5480000  18.9770000
  44.4300000  16.5880000  21.7220000  45.5710000  18.6950000  21.4400000
  43.3850000  14.6580000  21.8980000  44.8350000  16.6140000  23.1440000
  45.9320000  18.7350000  22.7560000  45.8720000  19.4980000  20.7910000
  45.5910000  17.6790000  23.6500000  44.4850000  15.6110000  24.0300000
  46.5020000  19.5800000  23.1190000  46.0080000  17.7590000  24.9910000
  44.9010000  15.6730000  25.3750000  43.8700000  14.7870000  23.6980000
  45.6470000  16.7360000  25.8210000  46.5890000  18.5960000  25.3520000
  44.6420000  14.8720000  26.0480000  45.9460000  16.7680000  26.8530000
  43.1510000  16.4890000  44.6360000  42.4140000  15.4390000  44.0670000
  43.5500000  17.5310000  43.7470000  43.5290000  16.5510000  46.0430000
  42.1120000  15.4450000  42.6910000  42.0840000  14.6250000  44.6870000
  43.2890000  17.5060000  42.3490000  44.2870000  18.5730000  44.3100000
  44.2590000  17.6190000  46.5430000  43.0990000  15.4950000  46.9130000
  42.5710000  16.4370000  41.8860000  41.5040000  14.6470000  42.2650000
  43.6400000  18.2740000  41.6790000  44.5970000  18.6620000  45.6400000
  44.6450000  19.3690000  43.6560000  44.6120000  17.6320000  47.9280000
  43.4580000  15.4770000  48.2730000  42.4900000  14.7000000  46.5200000
  42.3600000  16.3830000  40.8370000  45.1070000  19.5480000  46.0060000
  44.2130000  16.5880000  48.7510000  45.3540000  18.6950000  48.4690000
  43.1680000  14.6580000  48.9270000  44.6170000  16.6140000  50.1730000
  45.7150000  18.7350000  49.7850000  45.6550000  19.4980000  47.8200000
  45.3740000  17.6790000  50.6800000  44.2680000  15.6110000  51.0590000
  46.2850000  19.5800000  50.1480000  45.7910000  17.7590000  52.0200000
  44.6840000  15.6730000  52.4040000  43.6530000  14.7870000  50.7270000
  45.4300000  16.7360000  52.8500000  46.3720000  18.5960000  52.3810000
  44.4250000  14.8720000  53.0770000  45.7290000  16.7680000  53.8830000
  43.4760000  22.6430000   4.0920000  42.7400000  21.5930000   3.5230000
  43.8750000  23.6850000   3.2030000  43.8540000  22.7050000   5.4990000
  42.4380000  21.5990000   2.1470000  42.4100000  20.7790000   4.1440000
  43.6140000  23.6600000   1.8060000  44.6130000  24.7270000   3.7670000
  44.5850000  23.7730000   5.9990000  43.4250000  21.6490000   6.3690000
  42.8960000  22.5910000   1.3420000  41.8300000  20.8010000   1.7220000
  43.9660000  24.4280000   1.1350000  44.9230000  24.8160000   5.0960000
  44.9710000  25.5230000   3.1120000  44.9370000  23.7860000   7.3840000
  43.7840000  21.6310000   7.7290000  42.8160000  20.8540000   5.9760000
  42.6860000  22.5370000   0.2930000  45.4330000  25.7020000   5.4630000
  44.5380000  22.7420000   8.2070000  45.6790000  24.8490000   7.9250000
  43.4940000  20.8120000   8.3830000  44.9430000  22.7680000   9.6290000
  46.0400000  24.8890000   9.2410000  45.9800000  25.6520000   7.2760000
  45.7000000  23.8330000  10.1360000  44.5930000  21.7650000  10.5160000
  46.6100000  25.7340000   9.6050000  46.1160000  23.9130000  11.4770000
  45.0100000  21.8270000  11.8600000  43.9790000  20.9410000  10.1830000
  45.7560000  22.8900000  12.3060000  46.6980000  24.7500000  11.8370000
  44.7510000  21.0260000  12.5330000  46.0550000  22.9220000  13.3390000
  43.3680000  22.6430000  17.6070000  42.6310000  21.5930000  17.0380000
  43.7670000  23.6850000  16.7180000  43.7460000  22.7050000  19.0140000
  42.3290000  21.5990000  15.6620000  42.3010000  20.7790000  17.6580000
  43.5060000  23.6600000  15.3200000  44.5040000  24.7270000  17.2810000
  44.4760000  23.7730000  19.5140000  43.3160000  21.6490000  19.8840000
  42.7880000  22.5910000  14.8570000  41.7210000  20.8010000  15.2360000
  43.8570000  24.4280000  14.6500000  44.8140000  24.8160000  18.6110000
  44.8620000  25.5230000  16.6270000  44.8290000  23.7860000  20.8990000
  43.6750000  21.6310000  21.2440000  42.7070000  20.8540000  19.4910000
  42.5770000  22.5370000  13.8080000  45.3240000  25.7020000  18.9770000
  44.4300000  22.7420000  21.7220000  45.5710000  24.8490000  21.4400000
  43.3850000  20.8120000  21.8980000  44.8350000  22.7680000  23.1440000
  45.9320000  24.8890000  22.7560000  45.8720000  25.6520000  20.7910000
  45.5910000  23.8330000  23.6500000  44.4850000  21.7650000  24.0300000
  46.5020000  25.7340000  23.1190000  46.0080000  23.9130000  24.9910000
  44.9010000  21.8270000  25.3750000  43.8700000  20.9410000  23.6980000
  45.6470000  22.8900000  25.8210000  46.5890000  24.7500000  25.3520000
  44.6420000  21.0260000  26.0480000  45.9460000  22.9220000  26.8530000
  43.1510000  22.6430000  44.6360000  42.4140000  21.5930000  44.0670000
  43.5500000  23.6850000  43.7470000  43.5290000  22.7050000  46.0430000
  42.1120000  21.5990000  42.6910000  42.0840000  20.7790000  44.6870000
  43.2890000  23.6600000  42.3490000  44.2870000  24.7270000  44.3100000
  44.2590000  23.7730000  46.5430000  43.0990000  21.6490000  46.9130000
  42.5710000  22.5910000  41.8860000  41.5040000  20.8010000  42.2650000
  43.6400000  24.4280000  41.6790000  44.5970000  24.8160000  45.6400000
  44.6450000  25.5230000  43.6560000  44.6120000  23.7860000  47.9280000
  43.4580000  21.6310000  48.2730000  42.4900000  20.8540000  46.5200000
  42.3600000  22.5370000  40.8370000  45.1070000  25.7020000  46.0060000
  44.2130000  22.7420000  48.7510000  45.3540000  24.8490000  48.4690000
  43.1680000  20.8120000  48.9270000  44.6170000  22.7680000  50.1730000
  45.7150000  24.8890000  49.7850000  45.6550000  25.6520000  47.8200000
  45.3740000  23.8330000  50.6800000  44.2680000  21.7650000  51.0590000
  46.2850000  25.7340000  50.1480000  45.7910000  23.9130000  52.0200000
  44.6840000  21.8270000  52.4040000  43.6530000  20.9410000  50.7270000
  45.4300000  22.8900000  52.8500000  46.3720000  24.7500000  52.3810000
  44.4250000  21.0260000  53.0770000  45.7290000  22.9220000  53.8830000
  43.4760000  28.7970000   4.0920000  42.7400000  27.7470000   3.5230000
  43.8750000  29.8390000   3.2030000  43.8540000  28.8590000   5.4990000
  42.4380000  27.7530000   2.1470000  42.4100000  26.9330000   4.1440000
  43.6140000  29.8140000   1.8060000  44.6130000  30.8810000   3.7670000
  44.5850000  29.9270000   5.9990000  43.4250000  27.8030000   6.3690000
  42.8960000  28.7450000   1.3420000  41.8300000  26.9550000   1.7220000
  43.9660000  30.5820000   1.1350000  44.9230000  30.9700000   5.0960000
  44.9710000  31.6770000   3.1120000  44.9370000  29.9400000   7.3840000
  43.7840000  27.7850000   7.7290000  42.8160000  27.0080000   5.9760000
  42.6860000  28.6910000   0.2930000  45.4330000  31.8560000   5.4630000
  44.5380000  28.8960000   8.2070000  45.6790000  31.0030000   7.9250000
  43.4940000  26.9660000   8.3830000  44.9430000  28.9220000   9.6290000
  46.0400000  31.0430000   9.2410000  45.9800000  31.8060000   7.2760000
  45.7000000  29.9870000  10.1360000  44.5930000  27.9190000  10.5160000
  46.6100000  31.8880000   9.6050000  46.1160000  30.0670000  11.4770000
  45.0100000  27.9810000  11.8600000  43.9790000  27.0950000  10.1830000
  45.7560000  29.0440000  12.3060000  46.6980000  30.9040000  11.8370000
  44.7510000  27.1800000  12.5330000  46.0550000  29.0760000  13.3390000
  43.3680000  28.7970000  17.6070000  42.6310000  27.7470000  17.0380000
  43.7670000  29.8390000  16.7180000  43.7460000  28.8590000  19.0140000
  42.3290000  27.7530000  15.6620000  42.3010000  26.9330000  17.6580000
  43.5060000  29.8140000  15.3200000  44.5040000  30.8810000  17.2810000
  44.4760000  29.9270000  19.5140000  43.3160000  27.8030000  19.8840000
  42.7880000  28.7450000  14.8570000  41.7210000  26.9550000  15.2360000
  43.8570000  30.5820000  14.6500000  44.8140000  30.9700000  18.6110000
  44.8620000  31.6770000  16.6270000  44.8290000  29.9400000  20.8990000
  43.6750000  27.7850000  21.2440000  42.7070000  27.0080000  19.4910000
  42.5770000  28.6910000  13.8080000  45.3240000  31.8560000  18.9770000
  44.4300000  28.8960000  21.7220000  45.5710000  31.0030000  21.4400000
  43.3850000  26.9660000  21.8980000  44.8350000  28.9220000  23.1440000
  45.9320000  31.0430000  22.7560000  45.8720000  31.8060000  20.7910000
  45.5910000  29.9870000  23.6500000  44.4850000  27.9190000  24.0300000
  46.5020000  31.8880000  23.1190000  46.0080000  30.0670000  24.9910000
  44.9010000  27.9810000  25.3750000  43.8700000  27.0950000  23.6980000
  45.6470000  29.0440000  25.8210000  46.5890000  30.9040000  25.3520000
  44.6420000  27.1800000  26.0480000  45.9460000  29.0760000  26.8530000
  43.1510000  28.7970000  44.6360000  42.4140000  27.7470000  44.0670000
  43.5500000  29.8390000  43.7470000  43.5290000  28.8590000  46.0430000
  42.1120000  27.7530000  42.6910000  42.0840000  26.9330000  44.6870000
  43.2890000  29.8140000  42.3490000  44.2870000  30.8810000  44.3100000
  44.2590000  29.9270000  46.5430000  43.0990000  27.8030000  46.9130000
  42.5710000  28.7450000  41.8860000  41.5040000  26.9550000  42.2650000
  43.6400000  30.5820000  41.6790000  44.5970000  30.9700000  45.6400000
  44.6450000  31.6770000  43.6560000  44.6120000  29.9400000  47.9280000
  43.4580000  27.7850000  48.2730000  42.4900000  27.0080000  46.5200000
  42.3600000  28.6910000  40.8370000  45.1070000  31.8560000  46.0060000
  44.2130000  28.8960000  48.7510000  45.3540000  31.0030000  48.4690000
  43.1680000  26.9660000  48.9270000  44.6170000  28.9220000  50.1730000
  45.7150000  31.0430000  49.7850000  45.6550000  31.8060000  47.8200000
  45.3740000  29.9870000  50.6800000  44.2680000  27.9190000  51.0590000
  46.2850000  31.8880000  50.1480000  45.7910000  30.0670000  52.0200000
  44.6840000  27.9810000  52.4040000  43.6530000  27.0950000  50.7270000
  45.4300000  29.0440000  52.8500000  46.3720000  30.9040000  52.3810000
  44.4250000  27.1800000  53.0770000  45.7290000  29.0760000  53.8830000
  43.4760000  34.9510000   4.0920000  42.7400000  33.9010000   3.5230000
  43.8750000  35.9930000   3.2030000  43.8540000  35.0130000   5.4990000
  42.4380000  33.9070000   2.1470000  42.4100000  33.0870000   4.1440000
  43.6140000  35.9680000   1.8060000  44.6130000  37.0350000   3.7670000
  44.5850000  36.0810000   5.9990000  43.4250000  33.9570000   6.3690000
  42.8960000  34.8990000   1.3420000  41.8300000  33.1090000   1.7220000
  43.9660000  36.7360000   1.1350000  44.9230000  37.1240000   5.0960000
  44.9710000  37.8310000   3.1120000  44.9370000  36.0940000   7.3840000
  43.7840000  33.9390000   7.7290000  42.8160000  33.1620000   5.9760000
  42.6860000  34.8450000   0.2930000  45.4330000  38.0100000   5.4630000
  44.5380000  35.0500000   8.2070000  45.6790000  37.1570000   7.9250000
  43.4940000  33.1200000   8.3830000  44.9430000  35.0760000   9.6290000
  46.0400000  37.1970000   9.2410000  45.9800000  37.9600000   7.2760000
  45.7000000  36.1410000  10.1360000  44.5930000  34.0730000  10.5160000
  46.6100000  38.0420000   9.6050000  46.1160000  36.2210000  11.4770000
  45.0100000  34.1350000  11.8600000  43.9790000  33.2490000  10.1830000
  45.7560000  35.1980000  12.3060000  46.6980000  37.0580000  11.8370000
  44.7510000  33.3340000  12.5330000  46.0550000  35.2300000  13.3390000
  43.3680000  34.9510000  17.6070000  42.6310000  33.9010000  17.0380000
  43.7670000  35.9930000  16.7180000  43.7460000  35.0130000  19.0140000
  42.3290000  33.9070000  15.6620000  42.3010000  33.0870000  17.6580000
  43.5060000  35.9680000  15.3200000  44.5040000  37.0350000  17.2810000
  44.4760000  36.0810000  19.5140000  43.3160000  33.9570000  19.8840000
  42.7880000  34.8990000  14.8570000  41.7210000  33.1090000  15.2360000
  43.8570000  36.7360000  14.6500000  44.8140000  37.1240000  18.6110000
  44.8620000  37.8310000  16.6270000  44.8290000  36.0940000  20.8990000
  43.6750000  33.9390000  21.2440000  42.7070000  33.1620000  19.4910000
  42.5770000  34.8450000  13.8080000  45.3240000  38.0100000  18.9770000
  44.4300000  35.0500000  21.7220000  45.5710000  37.1570000  21.4400000
  43.3850000  33.1200000  21.8980000  44.8350000  35.0760000  23.1440000
  45.9320000  37.1970000  22.7560000  45.8720000  37.9600000  20.7910000
  45.5910000  36.1410000  23.6500000  44.4850000  34.0730000  24.0300000
  46.5020000  38.0420000  23.1190000  46.0080000  36.2210000  24.9910000
  44.9010000  34.1350000  25.3750000  43.8700000  33.2490000  23.6980000
  45.6470000  35.1980000  25.8210000  46.5890000  37.0580000  25.3520000
  44.6420000  33.3340000  26.0480000  45.9460000  35.2300000  26.8530000
  43.1510000  34.9510000  44.6360000  42.4140000  33.9010000  44.0670000
  43.5500000  35.9930000  43.7470000  43.5290000  35.0130000  46.0430000
  42.1120000  33.9070000  42.6910000  42.0840000  33.0870000  44.6870000
  43.2890000  35.9680000  42.3490000  44.2870000  37.0350000  44.3100000
  44.2590000  36.0810000  46.5430000  43.0990000  33.9570000  46.9130000
  42.5710000  34.8990000  41.8860000  41.5040000  33.1090000  42.2650000
  43.6400000  36.7360000  41.6790000  44.5970000  37.1240000  45.6400000
  44.6450000  37.8310000  43.6560000  44.6120000  36.0940000  47.9280000
  43.4580000  33.9390000  48.2730000  42.4900000  33.1620000  46.5200000
  42.3600000  34.8450000  40.8370000  45.1070000  38.0100000  46.0060000
  44.2130000  35.0500000  48.7510000  45.3540000  37.1570000  48.4690000
  43.1680000  33.1200000  48.9270000  44.6170000  35.0760000  50.1730000
  45.7150000  37.1970000  49.7850000  45.6550000  37.9600000  47.8200000
  45.3740000  36.1410000  50.6800000  44.2680000  34.0730000  51.0590000
  46.2850000  38.0420000  50.1480000  45.7910000  36.2210000  52.0200000
  44.6840000  34.1350000  52.4040000  43.6530000  33.2490000  50.7270000
  45.4300000  35.1980000  52.8500000  46.3720000  37.0580000  52.3810000
  44.4250000  33.3340000  53.0770000  45.7290000  35.2300000  53.8830000
  43.4760000  41.1050000   4.0920000  42.7400000  40.0550000   3.5230000
  43.8750000  42.1470000   3.2030000  43.8540000  41.1670000   5.4990000
  42.4380000  40.0610000   2.1470000  42.4100000  39.2410000   4.1440000
  43.6140000  42.1220000   1.8060000  44.6130000  43.1890000   3.7670000
  44.5850000  42.2350000   5.9990000  43.4250000  40.1110000   6.3690000
  42.8960000  41.0530000   1.3420000  41.8300000  39.2630000   1.7220000
  43.9660000  42.8900000   1.1350000  44.9230000  43.2780000   5.0960000
  44.9710000  43.9850000   3.1120000  44.9370000  42.2480000   7.3840000
  43.7840000  40.0930000   7.7290000  42.8160000  39.3160000   5.9760000
  42.6860000  40.9990000   0.2930000  45.4330000  44.1640000   5.4630000
  44.5380000  41.2040000   8.2070000  45.6790000  43.3110000   7.9250000
  43.4940000  39.2740000   8.3830000  44.9430000  41.2300000   9.6290000
  46.0400000  43.3510000   9.2410000  45.9800000  44.1140000   7.2760000
  45.7000000  42.2950000  10.1360000  44.5930000  40.2270000  10.5160000
  46.6100000  44.1960000   9.6050000  46.1160000  42.3750000  11.4770000
  45.0100000  40.2890000  11.8600000  43.9790000  39.4030000  10.1830000
  45.7560000  41.3520000  12.3060000  46.6980000  43.2120000  11.8370000
  44.7510000  39.4880000  12.5330000  46.0550000  41.3840000  13.3390000
  43.3680000  41.1050000  17.6070000  42.6310000  40.0550000  17.0380000
  43.7670000  42.1470000  16.7180000  43.7460000  41.1670000  19.0140000
  42.3290000  40.0610000  15.6620000  42.3010000  39.2410000  17.6580000
  43.5060000  42.1220000  15.3200000  44.5040000  43.1890000  17.2810000
  44.4760000  42.2350000  19.5140000  43.3160000  40.1110000  19.8840000
  42.7880000  41.0530000  14.8570000  41.7210000  39.2630000  15.2360000
  43.8570000  42.8900000  14.6500000  44.8140000  43.2780000  18.6110000
  44.8620000  43.9850000  16.6270000  44.8290000  42.2480000  20.8990000
  43.6750000  40.0930000  21.2440000  42.7070000  39.3160000  19.4910000
  42.5770000  40.9990000  13.8080000  45.3240000  44.1640000  18.9770000
  44.4300000  41.2040000  21.7220000  45.5710000  43.3110000  21.4400000
  43.3850000  39.2740000  21.8980000  44.8350000  41.2300000  23.1440000
  45.9320000  43.3510000  22.7560000  45.8720000  44.1140000  20.7910000
  45.5910000  42.2950000  23.6500000  44.4850000  40.2270000  24.0300000
  46.5020000  44.1960000  23.1190000  46.0080000  42.3750000  24.9910000
  44.9010000  40.2890000  25.3750000  43.8700000  39.4030000  23.6980000
  45.6470000  41.3520000  25.8210000  46.5890000  43.2120000  25.3520000
  44.6420000  39.4880000  26.0480000  45.9460000  41.3840000  26.8530000
  43.1510000  41.1050000  44.6360000  42.4140000  40.0550000  44.0670000
  43.5500000  42.1470000  43.7470000  43.5290000  41.1670000  46.0430000
  42.1120000  40.0610000  42.6910000  42.0840000  39.2410000  44.6870000
  43.2890000  42.1220000  42.3490000  44.2870000  43.1890000  44.3100000
  44.2590000  42.2350000  46.5430000  43.0990000  40.1110000  46.9130000
  42.5710000  41.0530000  41.8860000  41.5040000  39.2630000  42.2650000
  43.6400000  42.8900000  41.6790000  44.5970000  43.2780000  45.6400000
  44.6450000  43.9850000  43.6560000  44.6120000  42.2480000  47.9280000
  43.4580000  40.0930000  48.2730000  42.4900000  39.3160000  46.5200000
  42.3600000  40.9990000  40.8370000  45.1070000  44.1640000  46.0060000
  44.2130000  41.2040000  48.7510000  45.3540000  43.3110000  48.4690000
  43.1680000  39.2740000  48.9270000  44.6170000  41.2300000  50.1730000
  45.7150000  43.3510000  49.7850000  45.6550000  44.1140000  47.8200000
  45.3740000  42.2950000  50.6800000  44.2680000  40.2270000  51.0590000
  46.2850000  44.1960000  50.1480000  45.7910000  42.3750000  52.0200000
  44.6840000  40.2890000  52.4040000  43.6530000  39.4030000  50.7270000
  45.4300000  41.3520000  52.8500000  46.3720000  43.2120000  52.3810000
  44.4250000  39.4880000  53.0770000  45.7290000  41.3840000  53.8830000
  43.2590000  10.3350000  31.1210000  42.5230000   9.2850000  30.5520000
  43.6580000  11.3770000  30.2320000  43.6370000  10.3970000  32.5280000
  42.2210000   9.2910000  29.1770000  42.1930000   8.4710000  31.1730000
  43.3970000  11.3520000  28.8350000  44.3960000  12.4190000  30.7960000
  44.3680000  11.4650000  33.0280000  43.2080000   9.3410000  33.3990000
  42.6790000  10.2830000  28.3710000  41.6130000   8.4930000  28.7510000
  43.7490000  12.1200000  28.1640000  44.7060000  12.5080000  32.1250000
  44.7540000  13.2150000  30.1420000  44.7200000  11.4780000  34.4130000
  43.5670000   9.3230000  34.7580000  42.5990000   8.5460000  33.0050000
  42.4690000  10.2290000  27.3220000  45.2160000  13.3940000  32.4920000
  44.3210000  10.4340000  35.2370000  45.4620000  12.5410000  34.9540000
  43.2770000   8.5040000  35.4120000  44.7260000  10.4600000  36.6580000
  45.8230000  12.5810000  36.2700000  45.7630000  13.3440000  34.3050000
  45.4830000  11.5250000  37.1650000  44.3760000   9.4570000  37.5450000
  46.3930000  13.4260000  36.6340000  45.8990000  11.6050000  38.5060000
  44.7930000   9.5190000  38.8900000  43.7620000   8.6330000  37.2120000
  45.5390000  10.5820000  39.3350000  46.4810000  12.4420000  38.8670000
  44.5340000   8.7180000  39.5630000  45.8380000  10.6140000  40.3680000
  43.0420000  10.3350000  58.1500000  42.3060000   9.2850000  57.5820000
  43.4410000  11.3770000  57.2610000  43.4200000  10.3970000  59.5570000
  42.0040000   9.2910000  56.2060000  41.9760000   8.4710000  58.2020000
  43.1800000  11.3520000  55.8640000  44.1790000  12.4190000  57.8250000
  44.1510000  11.4650000  60.0570000  42.9910000   9.3410000  60.4280000
  42.4620000  10.2830000  55.4000000  41.3960000   8.4930000  55.7800000
  43.5320000  12.1200000  55.1930000  44.4890000  12.5080000  59.1550000
  44.5370000  13.2150000  57.1710000  44.5030000  11.4780000  61.4430000
  43.3500000   9.3230000  61.7870000  42.3820000   8.5460000  60.0340000
  42.2520000  10.2290000  54.3520000  44.9990000  13.3940000  59.5210000
  44.1040000  10.4340000  62.2660000  45.2450000  12.5410000  61.9830000
  43.0600000   8.5040000  62.4410000  44.5090000  10.4600000  63.6870000
  45.6060000  12.5810000  63.3000000  45.5460000  13.3440000  61.3340000
  45.2660000  11.5250000  64.1940000  44.1590000   9.4570000  64.5740000
  46.1760000  13.4260000  63.6630000  45.6820000  11.6050000  65.5350000
  44.5760000   9.5190000  65.9190000  43.5450000   8.6330000  64.2410000
  45.3220000  10.5820000  66.3650000  46.2640000  12.4420000  65.8960000
  44.3170000   8.7180000  66.5920000  45.6210000  10.6140000  67.3970000
  43.2590000  16.4890000  31.1210000  42.5230000  15.4390000  30.5520000
  43.6580000  17.5310000  30.2320000  43.6370000  16.5510000  32.5280000
  42.2210000  15.4450000  29.1770000  42.1930000  14.6250000  31.1730000
  43.3970000  17.5060000  28.8350000  44.3960000  18.5730000  30.7960000
  44.3680000  17.6190000  33.0280000  43.2080000  15.4950000  33.3990000
  42.6790000  16.4370000  28.3710000  41.6130000  14.6470000  28.7510000
  43.7490000  18.2740000  28.1640000  44.7060000  18.6620000  32.1250000
  44.7540000  19.3690000  30.1420000  44.7200000  17.6320000  34.4130000
  43.5670000  15.4770000  34.7580000  42.5990000  14.7000000  33.0050000
  42.4690000  16.3830000  27.3220000  45.2160000  19.5480000  32.4920000
  44.3210000  16.5880000  35.2370000  45.4620000  18.6950000  34.9540000
  43.2770000  14.6580000  35.4120000  44.7260000  16.6140000  36.6580000
  45.8230000  18.7350000  36.2700000  45.7630000  19.4980000  34.3050000
  45.4830000  17.6790000  37.1650000  44.3760000  15.6110000  37.5450000
  46.3930000  19.5800000  36.6340000  45.8990000  17.7590000  38.5060000
  44.7930000  15.6730000  38.8900000  43.7620000  14.7870000  37.2120000
  45.5390000  16.7360000  39.3350000  46.4810000  18.5960000  38.8670000
  44.5340000  14.8720000  39.5630000  45.8380000  16.7680000  40.3680000
  43.0420000  16.4890000  58.1500000  42.3060000  15.4390000  57.5820000
  43.4410000  17.5310000  57.2610000  43.4200000  16.5510000  59.5570000
  42.0040000  15.4450000  56.2060000  41.9760000  14.6250000  58.2020000
  43.1800000  17.5060000  55.8640000  44.1790000  18.5730000  57.8250000
  44.1510000  17.6190000  60.0570000  42.9910000  15.4950000  60.4280000
  42.4620000  16.4370000  55.4000000  41.3960000  14.6470000  55.7800000
  43.5320000  18.2740000  55.1930000  44.4890000  18.6620000  59.1550000
  44.5370000  19.3690000  57.1710000  44.5030000  17.6320000  61.4430000
  43.3500000  15.4770000  61.7870000  42.3820000  14.7000000  60.0340000
  42.2520000  16.3830000  54.3520000  44.9990000  19.5480000  59.5210000
  44.1040000  16.5880000  62.2660000  45.2450000  18.6950000  61.9830000
  43.0600000  14.6580000  62.4410000  44.5090000  16.6140000  63.6870000
  45.6060000  18.7350000  63.3000000  45.5460000  19.4980000  61.3340000
  45.2660000  17.6790000  64.1940000  44.1590000  15.6110000  64.5740000
  46.1760000  19.5800000  63.6630000  45.6820000  17.7590000  65.5350000
  44.5760000  15.6730000  65.9190000  43.5450000  14.7870000  64.2410000
  45.3220000  16.7360000  66.3650000  46.2640000  18.5960000  65.8960000
  44.3170000  14.8720000  66.5920000  45.6210000  16.7680000  67.3970000
  43.2590000  22.6430000  31.1210000  42.5230000  21.5930000  30.5520000
  43.6580000  23.6850000  30.2320000  43.6370000  22.7050000  32.5280000
  42.2210000  21.5990000  29.1770000  42.1930000  20.7790000  31.1730000
  43.3970000  23.6600000  28.8350000  44.3960000  24.7270000  30.7960000
  44.3680000  23.7730000  33.0280000  43.2080000  21.6490000  33.3990000
  42.6790000  22.5910000  28.3710000  41.6130000  20.8010000  28.7510000
  43.7490000  24.4280000  28.1640000  44.7060000  24.8160000  32.1250000
  44.7540000  25.5230000  30.1420000  44.7200000  23.7860000  34.4130000
  43.5670000  21.6310000  34.7580000  42.5990000  20.8540000  33.0050000
  42.4690000  22.5370000  27.3220000  45.2160000  25.7020000  32.4920000
  44.3210000  22.7420000  35.2370000  45.4620000  24.8490000  34.9540000
  43.2770000  20.8120000  35.4120000  44.7260000  22.7680000  36.6580000
  45.8230000  24.8890000  36.2700000  45.7630000  25.6520000  34.3050000
  45.4830000  23.8330000  37.1650000  44.3760000  21.7650000  37.5450000
  46.3930000  25.7340000  36.6340000  45.8990000  23.9130000  38.5060000
  44.7930000  21.8270000  38.8900000  43.7620000  20.9410000  37.2120000
  45.5390000  22.8900000  39.3350000  46.4810000  24.7500000  38.8670000
  44.5340000  21.0260000  39.5630000  45.8380000  22.9220000  40.3680000
  43.0420000  22.6430000  58.1500000  42.3060000  21.5930000  57.5820000
  43.4410000  23.6850000  57.2610000  43.4200000  22.7050000  59.5570000
  42.0040000  21.5990000  56.2060000  41.9760000  20.7790000  58.2020000
  43.1800000  23.6600000  55.8640000  44.1790000  24.7270000  57.8250000
  44.1510000  23.7730000  60.0570000  42.9910000  21.6490000  60.4280000
  42.4620000  22.5910000  55.4000000  41.3960000  20.8010000  55.7800000
  43.5320000  24.4280000  55.1930000  44.4890000  24.8160000  59.1550000
  44.5370000  25.5230000  57.1710000  44.5030000  23.7860000  61.4430000
  43.3500000  21.6310000  61.7870000  42.3820000  20.8540000  60.0340000
  42.2520000  22.5370000  54.3520000  44.9990000  25.7020000  59.5210000
  44.1040000  22.7420000  62.2660000  45.2450000  24.8490000  61.9830000
  43.0600000  20.8120000  62.4410000  44.5090000  22.7680000  63.6870000
  45.6060000  24.8890000  63.3000000  45.5460000  25.6520000  61.3340000
  45.2660000  23.8330000  64.1940000  44.1590000  21.7650000  64.5740000
  46.1760000  25.7340000  63.6630000  45.6820000  23.9130000  65.5350000
  44.5760000  21.8270000  65.9190000  43.5450000  20.9410000  64.2410000
  45.3220000  22.8900000  66.3650000  46.2640000  24.7500000  65.8960000
  44.3170000  21.0260000  66.5920000  45.6210000  22.9220000  67.3970000
  43.2590000  28.7970000  31.1210000  42.5230000  27.7470000  30.5520000
  43.6580000  29.8390000  30.2320000  43.6370000  28.8590000  32.5280000
  42.2210000  27.7530000  29.1770000  42.1930000  26.9330000  31.1730000
  43.3970000  29.8140000  28.8350000  44.3960000  30.8810000  30.7960000
  44.3680000  29.9270000  33.0280000  43.2080000  27.8030000  33.3990000
  42.6790000  28.7450000  28.3710000  41.6130000  26.9550000  28.7510000
  43.7490000  30.5820000  28.1640000  44.7060000  30.9700000  32.1250000
  44.7540000  31.6770000  30.1420000  44.7200000  29.9400000  34.4130000
  43.5670000  27.7850000  34.7580000  42.5990000  27.0080000  33.0050000
  42.4690000  28.6910000  27.3220000  45.2160000  31.8560000  32.4920000
  44.3210000  28.8960000  35.2370000  45.4620000  31.0030000  34.9540000
  43.2770000  26.9660000  35.4120000  44.7260000  28.9220000  36.6580000
  45.8230000  31.0430000  36.2700000  45.7630000  31.8060000  34.3050000
  45.4830000  29.9870000  37.1650000  44.3760000  27.9190000  37.5450000
  46.3930000  31.8880000  36.6340000  45.8990000  30.0670000  38.5060000
  44.7930000  27.9810000  38.8900000  43.7620000  27.0950000  37.2120000
  45.5390000  29.0440000  39.3350000  46.4810000  30.9040000  38.8670000
  44.5340000  27.1800000  39.5630000  45.8380000  29.0760000  40.3680000
  43.0420000  28.7970000  58.1500000  42.3060000  27.7470000  57.5820000
  43.4410000  29.8390000  57.2610000  43.4200000  28.8590000  59.5570000
  42.0040000  27.7530000  56.2060000  41.9760000  26.9330000  58.2020000
  43.1800000  29.8140000  55.8640000  44.1790000  30.8810000  57.8250000
  44.1510000  29.9270000  60.0570000  42.9910000  27.8030000  60.4280000
  42.4620000  28.7450000  55.4000000  41.3960000  26.9550000  55.7800000
  43.5320000  30.5820000  55.1930000  44.4890000  30.9700000  59.1550000
  44.5370000  31.6770000  57.1710000  44.5030000  29.9400000  61.4430000
  43.3500000  27.7850000  61.7870000  42.3820000  27.0080000  60.0340000
  42.2520000  28.6910000  54.3520000  44.9990000  31.8560000  59.5210000
  44.1040000  28.8960000  62.2660000  45.2450000  31.0030000  61.9830000
  43.0600000  26.9660000  62.4410000  44.5090000  28.9220000  63.6870000
  45.6060000  31.0430000  63.3000000  45.5460000  31.8060000  61.3340000
  45.2660000  29.9870000  64.1940000  44.1590000  27.9190000  64.5740000
  46.1760000  31.8880000  63.6630000  45.6820000  30.0670000  65.5350000
  44.5760000  27.9810000  65.9190000  43.5450000  27.0950000  64.2410000
  45.3220000  29.0440000  66.3650000  46.2640000  30.9040000  65.8960000
  44.3170000  27.1800000  66.5920000  45.6210000  29.0760000  67.3970000
  43.2590000  34.9510000  31.1210000  42.5230000  33.9010000  30.5520000
  43.6580000  35.9930000  30.2320000  43.6370000  35.0130000  32.5280000
  42.2210000  33.9070000  29.1770000  42.1930000  33.0870000  31.1730000
  43.3970000  35.9680000  28.8350000  44.3960000  37.0350000  30.7960000
  44.3680000  36.0810000  33.0280000  43.2080000  33.9570000  33.3990000
  42.6790000  34.8990000  28.3710000  41.6130000  33.1090000  28.7510000
  43.7490000  36.7360000  28.1640000  44.7060000  37.1240000  32.1250000
  44.7540000  37.8310000  30.1420000  44.7200000  36.0940000  34.4130000
  43.5670000  33.9390000  34.7580000  42.5990000  33.1620000  33.0050000
  42.4690000  34.8450000  27.3220000  45.2160000  38.0100000  32.4920000
  44.3210000  35.0500000  35.2370000  45.4620000  37.1570000  34.9540000
  43.2770000  33.1200000  35.4120000  44.7260000  35.0760000  36.6580000
  45.8230000  37.1970000  36.2700000  45.7630000  37.9600000  34.3050000
  45.4830000  36.1410000  37.1650000  44.3760000  34.0730000  37.5450000
  46.3930000  38.0420000  36.6340000  45.8990000  36.2210000  38.5060000
  44.7930000  34.1350000  38.8900000  43.7620000  33.2490000  37.2120000
  45.5390000  35.1980000  39.3350000  46.4810000  37.0580000  38.8670000
  44.5340000  33.3340000  39.5630000  45.8380000  35.2300000  40.3680000
  43.0420000  34.9510000  58.1500000  42.3060000  33.9010000  57.5820000
  43.4410000  35.9930000  57.2610000  43.4200000  35.0130000  59.5570000
  42.0040000  33.9070000  56.2060000  41.9760000  33.0870000  58.2020000
  43.1800000  35.9680000  55.8640000  44.1790000  37.0350000  57.8250000
  44.1510000  36.0810000  60.0570000  42.9910000  33.9570000  60.4280000
  42.4620000  34.8990000  55.4000000  41.3960000  33.1090000  55.7800000
  43.5320000  36.7360000  55.1930000  44.4890000  37.1240000  59.1550000
  44.5370000  37.8310000  57.1710000  44.5030000  36.0940000  61.4430000
  43.3500000  33.9390000  61.7870000  42.3820000  33.1620000  60.0340000
  42.2520000  34.8450000  54.3520000  44.9990000  38.0100000  59.5210000
  44.1040000  35.0500000  62.2660000  45.2450000  37.1570000  61.9830000
  43.0600000  33.1200000  62.4410000  44.5090000  35.0760000  63.6870000
  45.6060000  37.1970000  63.3000000  45.5460000  37.9600000  61.3340000
  45.2660000  36.1410000  64.1940000  44.1590000  34.0730000  64.5740000
  46.1760000  38.0420000  63.6630000  45.6820000  36.2210000  65.5350000
  44.5760000  34.1350000  65.9190000  43.5450000  33.2490000  64.2410000
  45.3220000  35.1980000  66.3650000  46.2640000  37.0580000  65.8960000
  44.3170000  33.3340000  66.5920000  45.6210000  35.2300000  67.3970000
  43.2590000  41.1050000  31.1210000  42.5230000  40.0550000  30.5520000
  43.6580000  42.1470000  30.2320000  43.6370000  41.1670000  32.5280000
  42.2210000  40.0610000  29.1770000  42.1930000  39.2410000  31.1730000
  43.3970000  42.1220000  28.8350000  44.3960000  43.1890000  30.7960000
  44.3680000  42.2350000  33.0280000  43.2080000  40.1110000  33.3990000
  42.6790000  41.0530000  28.3710000  41.6130000  39.2630000  28.7510000
  43.7490000  42.8900000  28.1640000  44.7060000  43.2780000  32.1250000
  44.7540000  43.9850000  30.1420000  44.7200000  42.2480000  34.4130000
  43.5670000  40.0930000  34.7580000  42.5990000  39.3160000  33.0050000
  42.4690000  40.9990000  27.3220000  45.2160000  44.1640000  32.4920000
  44.3210000  41.2040000  35.2370000  45.4620000  43.3110000  34.9540000
  43.2770000  39.2740000  35.4120000  44.7260000  41.2300000  36.6580000
  45.8230000  43.3510000  36.2700000  45.7630000  44.1140000  34.3050000
  45.4830000  42.2950000  37.1650000  44.3760000  40.2270000  37.5450000
  46.3930000  44.1960000  36.6340000  45.8990000  42.3750000  38.5060000
  44.7930000  40.2890000  38.8900000  43.7620000  39.4030000  37.2120000
  45.5390000  41.3520000  39.3350000  46.4810000  43.2120000  38.8670000
  44.5340000  39.4880000  39.5630000  45.8380000  41.3840000  40.3680000
  43.0420000  41.1050000  58.1500000  42.3060000  40.0550000  57.5820000
  43.4410000  42.1470000  57.2610000  43.4200000  41.1670000  59.5570000
  42.0040000  40.0610000  56.2060000  41.9760000  39.2410000  58.2020000
  43.1800000  42.1220000  55.8640000  44.1790000  43.1890000  57.8250000
  44.1510000  42.2350000  60.0570000  42.9910000  40.1110000  60.4280000
  42.4620000  41.0530000  55.4000000  41.3960000  39.2630000  55.7800000
  43.5320000  42.8900000  55.1930000  44.4890000  43.2780000  59.1550000
  44.5370000  43.9850000  57.1710000  44.5030000  42.2480000  61.4430000
  43.3500000  40.0930000  61.7870000  42.3820000  39.3160000  60.0340000
  42.2520000  40.9990000  54.3520000  44.9990000  44.1640000  59.5210000
  44.1040000  41.2040000  62.2660000  45.2450000  43.3110000  61.9830000
  43.0600000  39.2740000  62.4410000  44.5090000  41.2300000  63.6870000
  45.6060000  43.3510000  63.3000000  45.5460000  44.1140000  61.3340000
  45.2660000  42.2950000  64.1940000  44.1590000  40.2270000  64.5740000
  46.1760000  44.1960000  63.6630000  45.6820000  42.3750000  65.5350000
  44.5760000  40.2890000  65.9190000  43.5450000  39.4030000  64.2410000
  45.3220000  41.3520000  66.3650000  46.2640000  43.2120000  65.8960000
  44.3170000  39.4880000  66.5920000  45.6210000  41.3840000  67.3970000
  49.6950000   7.2580000   9.4220000  50.4320000   6.2080000   9.9910000
  49.2960000   8.3000000  10.3120000  49.3170000   7.3200000   8.0150000
  50.7340000   6.2140000  11.3670000  50.7620000   5.3940000   9.3710000
  49.5570000   8.2750000  11.7090000  48.5590000   9.3420000   9.7480000
  48.5870000   8.3880000   7.5150000  49.7470000   6.2640000   7.1450000
  50.2750000   7.2060000  12.1730000  51.3420000   5.4160000  11.7930000
  49.2060000   9.0430000  12.3790000  48.2490000   9.4310000   8.4180000
  48.2010000  10.1380000  10.4020000  48.2340000   8.4010000   6.1300000
  49.3880000   6.2460000   5.7860000  50.3560000   5.4690000   7.5380000
  50.4860000   7.1520000  13.2210000  47.7390000  10.3170000   8.0520000
  48.6330000   7.3570000   5.3070000  47.4920000   9.4640000   5.5900000
  49.6780000   5.4270000   5.1310000  48.2280000   7.3830000   3.8850000
  47.1310000   9.5040000   4.2730000  47.1910000  10.2670000   6.2380000
  47.4720000   8.4480000   3.3790000  48.5780000   6.3800000   2.9990000
  46.5610000  10.3490000   3.9100000  47.0550000   8.5280000   2.0380000
  48.1620000   6.4420000   1.6540000  49.1930000   5.5560000   3.3310000
  47.4160000   7.5050000   1.2080000  46.4740000   9.3650000   1.6770000
  48.4210000   5.6410000   0.9810000  47.1170000   7.5370000   0.1760000
  49.5870000   7.2580000  22.9370000  50.3230000   6.2080000  23.5060000
  49.1880000   8.3000000  23.8260000  49.2090000   7.3200000  21.5300000
  50.6250000   6.2140000  24.8820000  50.6530000   5.3940000  22.8860000
  49.4490000   8.2750000  25.2240000  48.4500000   9.3420000  23.2630000
  48.4780000   8.3880000  21.0300000  49.6380000   6.2640000  20.6600000
  50.1670000   7.2060000  25.6870000  51.2330000   5.4160000  25.3070000
  49.0970000   9.0430000  25.8940000  48.1400000   9.4310000  21.9330000
  48.0920000  10.1380000  23.9170000  48.1260000   8.4010000  19.6450000
  49.2790000   6.2460000  19.3000000  50.2470000   5.4690000  21.0530000
  50.3770000   7.1520000  26.7360000  47.6300000  10.3170000  21.5670000
  48.5250000   7.3570000  18.8220000  47.3840000   9.4640000  19.1040000
  49.5690000   5.4270000  18.6460000  48.1200000   7.3830000  17.4000000
  47.0230000   9.5040000  17.7880000  47.0830000  10.2670000  19.7530000
  47.3630000   8.4480000  16.8930000  48.4700000   6.3800000  16.5130000
  46.4530000  10.3490000  17.4240000  46.9470000   8.5280000  15.5530000
  48.0530000   6.4420000  15.1690000  49.0840000   5.5560000  16.8460000
  47.3070000   7.5050000  14.7230000  46.3650000   9.3650000  15.1920000
  48.3120000   5.6410000  14.4960000  47.0080000   7.5370000  13.6900000
  49.4780000   7.2580000  36.4510000  50.2150000   6.2080000  37.0200000
  49.0790000   8.3000000  37.3410000  49.1000000   7.3200000  35.0450000
  50.5170000   6.2140000  38.3960000  50.5450000   5.3940000  36.4000000
  49.3400000   8.2750000  38.7380000  48.3420000   9.3420000  36.7770000
  48.3700000   8.3880000  34.5450000  49.5300000   6.2640000  34.1740000
  50.0580000   7.2060000  39.2020000  51.1250000   5.4160000  38.8220000
  48.9890000   9.0430000  39.4080000  48.0320000   9.4310000  35.4470000
  47.9840000  10.1380000  37.4310000  48.0170000   8.4010000  33.1590000
  49.1710000   6.2460000  32.8150000  50.1390000   5.4690000  34.5680000
  50.2690000   7.1520000  40.2500000  47.5220000  10.3170000  35.0810000
  48.4160000   7.3570000  32.3360000  47.2750000   9.4640000  32.6190000
  49.4610000   5.4270000  32.1610000  48.0110000   7.3830000  30.9150000
  46.9140000   9.5040000  31.3020000  46.9740000  10.2670000  33.2670000
  47.2550000   8.4480000  30.4080000  48.3610000   6.3800000  30.0280000
  46.3440000  10.3490000  30.9390000  46.8380000   8.5280000  29.0670000
  47.9450000   6.4420000  28.6830000  48.9760000   5.5560000  30.3600000
  47.1990000   7.5050000  28.2370000  46.2570000   9.3650000  28.7060000
  48.2040000   5.6410000  28.0100000  46.9000000   7.5370000  27.2050000
  49.3700000   7.2580000  49.9660000  50.1060000   6.2080000  50.5350000
  48.9710000   8.3000000  50.8550000  48.9920000   7.3200000  48.5590000
  50.4080000   6.2140000  51.9110000  50.4360000   5.3940000  49.9150000
  49.2320000   8.2750000  52.2530000  48.2330000   9.3420000  50.2920000
  48.2610000   8.3880000  48.0590000  49.4210000   6.2640000  47.6890000
  49.9500000   7.2060000  52.7160000  51.0160000   5.4160000  52.3370000
  48.8800000   9.0430000  52.9230000  47.9230000   9.4310000  48.9620000
  47.8750000  10.1380000  50.9460000  47.9090000   8.4010000  46.6740000
  49.0620000   6.2460000  46.3290000  50.0300000   5.4690000  48.0820000
  50.1600000   7.1520000  53.7650000  47.4130000  10.3170000  48.5960000
  48.3080000   7.3570000  45.8510000  47.1670000   9.4640000  46.1330000
  49.3520000   5.4270000  45.6750000  47.9030000   7.3830000  44.4290000
  46.8060000   9.5040000  44.8170000  46.8660000  10.2670000  46.7820000
  47.1460000   8.4480000  43.9220000  48.2530000   6.3800000  43.5430000
  46.2360000  10.3490000  44.4530000  46.7300000   8.5280000  42.5820000
  47.8360000   6.4420000  42.1980000  48.8670000   5.5560000  43.8750000
  47.0900000   7.5050000  41.7520000  46.1480000   9.3650000  42.2210000
  48.0950000   5.6410000  41.5250000  46.7910000   7.5370000  40.7190000
  49.6950000  13.4120000   9.4220000  50.4320000  12.3620000   9.9910000
  49.2960000  14.4540000  10.3120000  49.3170000  13.4740000   8.0150000
  50.7340000  12.3680000  11.3670000  50.7620000  11.5480000   9.3710000
  49.5570000  14.4290000  11.7090000  48.5590000  15.4960000   9.7480000
  48.5870000  14.5420000   7.5150000  49.7470000  12.4180000   7.1450000
  50.2750000  13.3600000  12.1730000  51.3420000  11.5700000  11.7930000
  49.2060000  15.1970000  12.3790000  48.2490000  15.5850000   8.4180000
  48.2010000  16.2920000  10.4020000  48.2340000  14.5550000   6.1300000
  49.3880000  12.4000000   5.7860000  50.3560000  11.6230000   7.5380000
  50.4860000  13.3060000  13.2210000  47.7390000  16.4710000   8.0520000
  48.6330000  13.5110000   5.3070000  47.4920000  15.6180000   5.5900000
  49.6780000  11.5810000   5.1310000  48.2280000  13.5370000   3.8850000
  47.1310000  15.6580000   4.2730000  47.1910000  16.4210000   6.2380000
  47.4720000  14.6020000   3.3790000  48.5780000  12.5340000   2.9990000
  46.5610000  16.5030000   3.9100000  47.0550000  14.6820000   2.0380000
  48.1620000  12.5960000   1.6540000  49.1930000  11.7100000   3.3310000
  47.4160000  13.6590000   1.2080000  46.4740000  15.5190000   1.6770000
  48.4210000  11.7950000   0.9810000  47.1170000  13.6910000   0.1760000
  49.5870000  13.4120000  22.9370000  50.3230000  12.3620000  23.5060000
  49.1880000  14.4540000  23.8260000  49.2090000  13.4740000  21.5300000
  50.6250000  12.3680000  24.8820000  50.6530000  11.5480000  22.8860000
  49.4490000  14.4290000  25.2240000  48.4500000  15.4960000  23.2630000
  48.4780000  14.5420000  21.0300000  49.6380000  12.4180000  20.6600000
  50.1670000  13.3600000  25.6870000  51.2330000  11.5700000  25.3070000
  49.0970000  15.1970000  25.8940000  48.1400000  15.5850000  21.9330000
  48.0920000  16.2920000  23.9170000  48.1260000  14.5550000  19.6450000
  49.2790000  12.4000000  19.3000000  50.2470000  11.6230000  21.0530000
  50.3770000  13.3060000  26.7360000  47.6300000  16.4710000  21.5670000
  48.5250000  13.5110000  18.8220000  47.3840000  15.6180000  19.1040000
  49.5690000  11.5810000  18.6460000  48.1200000  13.5370000  17.4000000
  47.0230000  15.6580000  17.7880000  47.0830000  16.4210000  19.7530000
  47.3630000  14.6020000  16.8930000  48.4700000  12.5340000  16.5130000
  46.4530000  16.5030000  17.4240000  46.9470000  14.6820000  15.5530000
  48.0530000  12.5960000  15.1690000  49.0840000  11.7100000  16.8460000
  47.3070000  13.6590000  14.7230000  46.3650000  15.5190000  15.1920000
  48.3120000  11.7950000  14.4960000  47.0080000  13.6910000  13.6900000
  49.4780000  13.4120000  36.4510000  50.2150000  12.3620000  37.0200000
  49.0790000  14.4540000  37.3410000  49.1000000  13.4740000  35.0450000
  50.5170000  12.3680000  38.3960000  50.5450000  11.5480000  36.4000000
  49.3400000  14.4290000  38.7380000  48.3420000  15.4960000  36.7770000
  48.3700000  14.5420000  34.5450000  49.5300000  12.4180000  34.1740000
  50.0580000  13.3600000  39.2020000  51.1250000  11.5700000  38.8220000
  48.9890000  15.1970000  39.4080000  48.0320000  15.5850000  35.4470000
  47.9840000  16.2920000  37.4310000  48.0170000  14.5550000  33.1590000
  49.1710000  12.4000000  32.8150000  50.1390000  11.6230000  34.5680000
  50.2690000  13.3060000  40.2500000  47.5220000  16.4710000  35.0810000
  48.4160000  13.5110000  32.3360000  47.2750000  15.6180000  32.6190000
  49.4610000  11.5810000  32.1610000  48.0110000  13.5370000  30.9150000
  46.9140000  15.6580000  31.3020000  46.9740000  16.4210000  33.2670000
  47.2550000  14.6020000  30.4080000  48.3610000  12.5340000  30.0280000
  46.3440000  16.5030000  30.9390000  46.8380000  14.6820000  29.0670000
  47.9450000  12.5960000  28.6830000  48.9760000  11.7100000  30.3600000
  47.1990000  13.6590000  28.2370000  46.2570000  15.5190000  28.7060000
  48.2040000  11.7950000  28.0100000  46.9000000  13.6910000  27.2050000
  49.3700000  13.4120000  49.9660000  50.1060000  12.3620000  50.5350000
  48.9710000  14.4540000  50.8550000  48.9920000  13.4740000  48.5590000
  50.4080000  12.3680000  51.9110000  50.4360000  11.5480000  49.9150000
  49.2320000  14.4290000  52.2530000  48.2330000  15.4960000  50.2920000
  48.2610000  14.5420000  48.0590000  49.4210000  12.4180000  47.6890000
  49.9500000  13.3600000  52.7160000  51.0160000  11.5700000  52.3370000
  48.8800000  15.1970000  52.9230000  47.9230000  15.5850000  48.9620000
  47.8750000  16.2920000  50.9460000  47.9090000  14.5550000  46.6740000
  49.0620000  12.4000000  46.3290000  50.0300000  11.6230000  48.0820000
  50.1600000  13.3060000  53.7650000  47.4130000  16.4710000  48.5960000
  48.3080000  13.5110000  45.8510000  47.1670000  15.6180000  46.1330000
  49.3520000  11.5810000  45.6750000  47.9030000  13.5370000  44.4290000
  46.8060000  15.6580000  44.8170000  46.8660000  16.4210000  46.7820000
  47.1460000  14.6020000  43.9220000  48.2530000  12.5340000  43.5430000
  46.2360000  16.5030000  44.4530000  46.7300000  14.6820000  42.5820000
  47.8360000  12.5960000  42.1980000  48.8670000  11.7100000  43.8750000
  47.0900000  13.6590000  41.7520000  46.1480000  15.5190000  42.2210000
  48.0950000  11.7950000  41.5250000  46.7910000  13.6910000  40.7190000
  49.6950000  19.5660000   9.4220000  50.4320000  18.5160000   9.9910000
  49.2960000  20.6080000  10.3120000  49.3170000  19.6280000   8.0150000
  50.7340000  18.5220000  11.3670000  50.7620000  17.7020000   9.3710000
  49.5570000  20.5830000  11.7090000  48.5590000  21.6500000   9.7480000
  48.5870000  20.6960000   7.5150000  49.7470000  18.5720000   7.1450000
  50.2750000  19.5140000  12.1730000  51.3420000  17.7240000  11.7930000
  49.2060000  21.3510000  12.3790000  48.2490000  21.7390000   8.4180000
  48.2010000  22.4460000  10.4020000  48.2340000  20.7090000   6.1300000
  49.3880000  18.5540000   5.7860000  50.3560000  17.7770000   7.5380000
  50.4860000  19.4600000  13.2210000  47.7390000  22.6250000   8.0520000
  48.6330000  19.6650000   5.3070000  47.4920000  21.7720000   5.5900000
  49.6780000  17.7350000   5.1310000  48.2280000  19.6910000   3.8850000
  47.1310000  21.8120000   4.2730000  47.1910000  22.5750000   6.2380000
  47.4720000  20.7560000   3.3790000  48.5780000  18.6880000   2.9990000
  46.5610000  22.6570000   3.9100000  47.0550000  20.8360000   2.0380000
  48.1620000  18.7500000   1.6540000  49.1930000  17.8640000   3.3310000
  47.4160000  19.8130000   1.2080000  46.4740000  21.6730000   1.6770000
  48.4210000  17.9490000   0.9810000  47.1170000  19.8450000   0.1760000
  49.5870000  19.5660000  22.9370000  50.3230000  18.5160000  23.5060000
  49.1880000  20.6080000  23.8260000  49.2090000  19.6280000  21.5300000
  50.6250000  18.5220000  24.8820000  50.6530000  17.7020000  22.8860000
  49.4490000  20.5830000  25.2240000  48.4500000  21.6500000  23.2630000
  48.4780000  20.6960000  21.0300000  49.6380000  18.5720000  20.6600000
  50.1670000  19.5140000  25.6870000  51.2330000  17.7240000  25.3070000
  49.0970000  21.3510000  25.8940000  48.1400000  21.7390000  21.9330000
  48.0920000  22.4460000  23.9170000  48.1260000  20.7090000  19.6450000
  49.2790000  18.5540000  19.3000000  50.2470000  17.7770000  21.0530000
  50.3770000  19.4600000  26.7360000  47.6300000  22.6250000  21.5670000
  48.5250000  19.6650000  18.8220000  47.3840000  21.7720000  19.1040000
  49.5690000  17.7350000  18.6460000  48.1200000  19.6910000  17.4000000
  47.0230000  21.8120000  17.7880000  47.0830000  22.5750000  19.7530000
  47.3630000  20.7560000  16.8930000  48.4700000  18.6880000  16.5130000
  46.4530000  22.6570000  17.4240000  46.9470000  20.8360000  15.5530000
  48.0530000  18.7500000  15.1690000  49.0840000  17.8640000  16.8460000
  47.3070000  19.8130000  14.7230000  46.3650000  21.6730000  15.1920000
  48.3120000  17.9490000  14.4960000  47.0080000  19.8450000  13.6900000
  49.4780000  19.5660000  36.4510000  50.2150000  18.5160000  37.0200000
  49.0790000  20.6080000  37.3410000  49.1000000  19.6280000  35.0450000
  50.5170000  18.5220000  38.3960000  50.5450000  17.7020000  36.4000000
  49.3400000  20.5830000  38.7380000  48.3420000  21.6500000  36.7770000
  48.3700000  20.6960000  34.5450000  49.5300000  18.5720000  34.1740000
  50.0580000  19.5140000  39.2020000  51.1250000  17.7240000  38.8220000
  48.9890000  21.3510000  39.4080000  48.0320000  21.7390000  35.4470000
  47.9840000  22.4460000  37.4310000  48.0170000  20.7090000  33.1590000
  49.1710000  18.5540000  32.8150000  50.1390000  17.7770000  34.5680000
  50.2690000  19.4600000  40.2500000  47.5220000  22.6250000  35.0810000
  48.4160000  19.6650000  32.3360000  47.2750000  21.7720000  32.6190000
  49.4610000  17.7350000  32.1610000  48.0110000  19.6910000  30.9150000
  46.9140000  21.8120000  31.3020000  46.9740000  22.5750000  33.2670000
  47.2550000  20.7560000  30.4080000  48.3610000  18.6880000  30.0280000
  46.3440000  22.6570000  30.9390000  46.8380000  20.8360000  29.0670000
  47.9450000  18.7500000  28.6830000  48.9760000  17.8640000  30.3600000
  47.1990000  19.8130000  28.2370000  46.2570000  21.6730000  28.7060000
  48.2040000  17.9490000  28.0100000  46.9000000  19.8450000  27.2050000
  49.3700000  19.5660000  49.9660000  50.1060000  18.5160000  50.5350000
  48.9710000  20.6080000  50.8550000  48.9920000  19.6280000  48.5590000
  50.4080000  18.5220000  51.9110000  50.4360000  17.7020000  49.9150000
  49.2320000  20.5830000  52.2530000  48.2330000  21.6500000  50.2920000
  48.2610000  20.6960000  48.0590000  49.4210000  18.5720000  47.6890000
  49.9500000  19.5140000  52.7160000  51.0160000  17.7240000  52.3370000
  48.8800000  21.3510000  52.9230000  47.9230000  21.7390000  48.9620000
  47.8750000  22.4460000  50.9460000  47.9090000  20.7090000  46.6740000
  49.0620000  18.5540000  46.3290000  50.0300000  17.7770000  48.0820000
  50.1600000  19.4600000  53.7650000  47.4130000  22.6250000  48.5960000
  48.3080000  19.6650000  45.8510000  47.1670000  21.7720000  46.1330000
  49.3520000  17.7350000  45.6750000  47.9030000  19.6910000  44.4290000
  46.8060000  21.8120000  44.8170000  46.8660000  22.5750000  46.7820000
  47.1460000  20.7560000  43.9220000  48.2530000  18.6880000  43.5430000
  46.2360000  22.6570000  44.4530000  46.7300000  20.8360000  42.5820000
  47.8360000  18.7500000  42.1980000  48.8670000  17.8640000  43.8750000
  47.0900000  19.8130000  41.7520000  46.1480000  21.6730000  42.2210000
  48.0950000  17.9490000  41.5250000  46.7910000  19.8450000  40.7190000
  49.6950000  25.7200000   9.4220000  50.4320000  24.6700000   9.9910000
  49.2960000  26.7620000  10.3120000  49.3170000  25.7820000   8.0150000
  50.7340000  24.6760000  11.3670000  50.7620000  23.8560000   9.3710000
  49.5570000  26.7370000  11.7090000  48.5590000  27.8040000   9.7480000
  48.5870000  26.8500000   7.5150000  49.7470000  24.7260000   7.1450000
  50.2750000  25.6680000  12.1730000  51.3420000  23.8780000  11.7930000
  49.2060000  27.5050000  12.3790000  48.2490000  27.8930000   8.4180000
  48.2010000  28.6000000  10.4020000  48.2340000  26.8630000   6.1300000
  49.3880000  24.7080000   5.7860000  50.3560000  23.9310000   7.5380000
  50.4860000  25.6140000  13.2210000  47.7390000  28.7790000   8.0520000
  48.6330000  25.8190000   5.3070000  47.4920000  27.9260000   5.5900000
  49.6780000  23.8890000   5.1310000  48.2280000  25.8450000   3.8850000
  47.1310000  27.9660000   4.2730000  47.1910000  28.7290000   6.2380000
  47.4720000  26.9100000   3.3790000  48.5780000  24.8420000   2.9990000
  46.5610000  28.8110000   3.9100000  47.0550000  26.9900000   2.0380000
  48.1620000  24.9040000   1.6540000  49.1930000  24.0180000   3.3310000
  47.4160000  25.9670000   1.2080000  46.4740000  27.8270000   1.6770000
  48.4210000  24.1030000   0.9810000  47.1170000  25.9990000   0.1760000
  49.5870000  25.7200000  22.9370000  50.3230000  24.6700000  23.5060000
  49.1880000  26.7620000  23.8260000  49.2090000  25.7820000  21.5300000
  50.6250000  24.6760000  24.8820000  50.6530000  23.8560000  22.8860000
  49.4490000  26.7370000  25.2240000  48.4500000  27.8040000  23.2630000
  48.4780000  26.8500000  21.0300000  49.6380000  24.7260000  20.6600000
  50.1670000  25.6680000  25.6870000  51.2330000  23.8780000  25.3070000
  49.0970000  27.5050000  25.8940000  48.1400000  27.8930000  21.9330000
  48.0920000  28.6000000  23.9170000  48.1260000  26.8630000  19.6450000
  49.2790000  24.7080000  19.3000000  50.2470000  23.9310000  21.0530000
  50.3770000  25.6140000  26.7360000  47.6300000  28.7790000  21.5670000
  48.5250000  25.8190000  18.8220000  47.3840000  27.9260000  19.1040000
  49.5690000  23.8890000  18.6460000  48.1200000  25.8450000  17.4000000
  47.0230000  27.9660000  17.7880000  47.0830000  28.7290000  19.7530000
  47.3630000  26.9100000  16.8930000  48.4700000  24.8420000  16.5130000
  46.4530000  28.8110000  17.4240000  46.9470000  26.9900000  15.5530000
  48.0530000  24.9040000  15.1690000  49.0840000  24.0180000  16.8460000
  47.3070000  25.9670000  14.7230000  46.3650000  27.8270000  15.1920000
  48.3120000  24.1030000  14.4960000  47.0080000  25.9990000  13.6900000
  49.4780000  25.7200000  36.4510000  50.2150000  24.6700000  37.0200000
  49.0790000  26.7620000  37.3410000  49.1000000  25.7820000  35.0450000
  50.5170000  24.6760000  38.3960000  50.5450000  23.8560000  36.4000000
  49.3400000  26.7370000  38.7380000  48.3420000  27.8040000  36.7770000
  48.3700000  26.8500000  34.5450000  49.5300000  24.7260000  34.1740000
  50.0580000  25.6680000  39.2020000  51.1250000  23.8780000  38.8220000
  48.9890000  27.5050000  39.4080000  48.0320000  27.8930000  35.4470000
  47.9840000  28.6000000  37.4310000  48.0170000  26.8630000  33.1590000
  49.1710000  24.7080000  32.8150000  50.1390000  23.9310000  34.5680000
  50.2690000  25.6140000  40.2500000  47.5220000  28.7790000  35.0810000
  48.4160000  25.8190000  32.3360000  47.2750000  27.9260000  32.6190000
  49.4610000  23.8890000  32.1610000  48.0110000  25.8450000  30.9150000
  46.9140000  27.9660000  31.3020000  46.9740000  28.7290000  33.2670000
  47.2550000  26.9100000  30.4080000  48.3610000  24.8420000  30.0280000
  46.3440000  28.8110000  30.9390000  46.8380000  26.9900000  29.0670000
  47.9450000  24.9040000  28.6830000  48.9760000  24.0180000  30.3600000
  47.1990000  25.9670000  28.2370000  46.2570000  27.8270000  28.7060000
  48.2040000  24.1030000  28.0100000  46.9000000  25.9990000  27.2050000
  49.3700000  25.7200000  49.9660000  50.1060000  24.6700000  50.5350000
  48.9710000  26.7620000  50.8550000  48.9920000  25.7820000  48.5590000
  50.4080000  24.6760000  51.9110000  50.4360000  23.8560000  49.9150000
  49.2320000  26.7370000  52.2530000  48.2330000  27.8040000  50.2920000
  48.2610000  26.8500000  48.0590000  49.4210000  24.7260000  47.6890000
  49.9500000  25.6680000  52.7160000  51.0160000  23.8780000  52.3370000
  48.8800000  27.5050000  52.9230000  47.9230000  27.8930000  48.9620000
  47.8750000  28.6000000  50.9460000  47.9090000  26.8630000  46.6740000
  49.0620000  24.7080000  46.3290000  50.0300000  23.9310000  48.0820000
  50.1600000  25.6140000  53.7650000  47.4130000  28.7790000  48.5960000
  48.3080000  25.8190000  45.8510000  47.1670000  27.9260000  46.1330000
  49.3520000  23.8890000  45.6750000  47.9030000  25.8450000  44.4290000
  46.8060000  27.9660000  44.8170000  46.8660000  28.7290000  46.7820000
  47.1460000  26.9100000  43.9220000  48.2530000  24.8420000  43.5430000
  46.2360000  28.8110000  44.4530000  46.7300000  26.9900000  42.5820000
  47.8360000  24.9040000  42.1980000  48.8670000  24.0180000  43.8750000
  47.0900000  25.9670000  41.7520000  46.1480000  27.8270000  42.2210000
  48.0950000  24.1030000  41.5250000  46.7910000  25.9990000  40.7190000
  49.6950000  31.8740000   9.4220000  50.4320000  30.8240000   9.9910000
  49.2960000  32.9160000  10.3120000  49.3170000  31.9360000   8.0150000
  50.7340000  30.8300000  11.3670000  50.7620000  30.0100000   9.3710000
  49.5570000  32.8910000  11.7090000  48.5590000  33.9580000   9.7480000
  48.5870000  33.0040000   7.5150000  49.7470000  30.8800000   7.1450000
  50.2750000  31.8220000  12.1730000  51.3420000  30.0320000  11.7930000
  49.2060000  33.6590000  12.3790000  48.2490000  34.0470000   8.4180000
  48.2010000  34.7540000  10.4020000  48.2340000  33.0170000   6.1300000
  49.3880000  30.8620000   5.7860000  50.3560000  30.0850000   7.5380000
  50.4860000  31.7680000  13.2210000  47.7390000  34.9330000   8.0520000
  48.6330000  31.9730000   5.3070000  47.4920000  34.0800000   5.5900000
  49.6780000  30.0430000   5.1310000  48.2280000  31.9990000   3.8850000
  47.1310000  34.1200000   4.2730000  47.1910000  34.8830000   6.2380000
  47.4720000  33.0640000   3.3790000  48.5780000  30.9960000   2.9990000
  46.5610000  34.9650000   3.9100000  47.0550000  33.1440000   2.0380000
  48.1620000  31.0580000   1.6540000  49.1930000  30.1720000   3.3310000
  47.4160000  32.1210000   1.2080000  46.4740000  33.9810000   1.6770000
  48.4210000  30.2570000   0.9810000  47.1170000  32.1530000   0.1760000
  49.5870000  31.8740000  22.9370000  50.3230000  30.8240000  23.5060000
  49.1880000  32.9160000  23.8260000  49.2090000  31.9360000  21.5300000
  50.6250000  30.8300000  24.8820000  50.6530000  30.0100000  22.8860000
  49.4490000  32.8910000  25.2240000  48.4500000  33.9580000  23.2630000
  48.4780000  33.0040000  21.0300000  49.6380000  30.8800000  20.6600000
  50.1670000  31.8220000  25.6870000  51.2330000  30.0320000  25.3070000
  49.0970000  33.6590000  25.8940000  48.1400000  34.0470000  21.9330000
  48.0920000  34.7540000  23.9170000  48.1260000  33.0170000  19.6450000
  49.2790000  30.8620000  19.3000000  50.2470000  30.0850000  21.0530000
  50.3770000  31.7680000  26.7360000  47.6300000  34.9330000  21.5670000
  48.5250000  31.9730000  18.8220000  47.3840000  34.0800000  19.1040000
  49.5690000  30.0430000  18.6460000  48.1200000  31.9990000  17.4000000
  47.0230000  34.1200000  17.7880000  47.0830000  34.8830000  19.7530000
  47.3630000  33.0640000  16.8930000  48.4700000  30.9960000  16.5130000
  46.4530000  34.9650000  17.4240000  46.9470000  33.1440000  15.5530000
  48.0530000  31.0580000  15.1690000  49.0840000  30.1720000  16.8460000
  47.3070000  32.1210000  14.7230000  46.3650000  33.9810000  15.1920000
  48.3120000  30.2570000  14.4960000  47.0080000  32.1530000  13.6900000
  49.4780000  31.8740000  36.4510000  50.2150000  30.8240000  37.0200000
  49.0790000  32.9160000  37.3410000  49.1000000  31.9360000  35.0450000
  50.5170000  30.8300000  38.3960000  50.5450000  30.0100000  36.4000000
  49.3400000  32.8910000  38.7380000  48.3420000  33.9580000  36.7770000
  48.3700000  33.0040000  34.5450000  49.5300000  30.8800000  34.1740000
  50.0580000  31.8220000  39.2020000  51.1250000  30.0320000  38.8220000
  48.9890000  33.6590000  39.4080000  48.0320000  34.0470000  35.4470000
  47.9840000  34.7540000  37.4310000  48.0170000  33.0170000  33.1590000
  49.1710000  30.8620000  32.8150000  50.1390000  30.0850000  34.5680000
  50.2690000  31.7680000  40.2500000  47.5220000  34.9330000  35.0810000
  48.4160000  31.9730000  32.3360000  47.2750000  34.0800000  32.6190000
  49.4610000  30.0430000  32.1610000  48.0110000  31.9990000  30.9150000
  46.9140000  34.1200000  31.3020000  46.9740000  34.8830000  33.2670000
  47.2550000  33.0640000  30.4080000  48.3610000  30.9960000  30.0280000
  46.3440000  34.9650000  30.9390000  46.8380000  33.1440000  29.0670000
  47.9450000  31.0580000  28.6830000  48.9760000  30.1720000  30.3600000
  47.1990000  32.1210000  28.2370000  46.2570000  33.9810000  28.7060000
  48.2040000  30.2570000  28.0100000  46.9000000  32.1530000  27.2050000
  49.3700000  31.8740000  49.9660000  50.1060000  30.8240000  50.5350000
  48.9710000  32.9160000  50.8550000  48.9920000  31.9360000  48.5590000
  50.4080000  30.8300000  51.9110000  50.4360000  30.0100000  49.9150000
  49.2320000  32.8910000  52.2530000  48.2330000  33.9580000  50.2920000
  48.2610000  33.0040000  48.0590000  49.4210000  30.8800000  47.6890000
  49.9500000  31.8220000  52.7160000  51.0160000  30.0320000  52.3370000
  48.8800000  33.6590000  52.9230000  47.9230000  34.0470000  48.9620000
  47.8750000  34.7540000  50.9460000  47.9090000  33.0170000  46.6740000
  49.0620000  30.8620000  46.3290000  50.0300000  30.0850000  48.0820000
  50.1600000  31.7680000  53.7650000  47.4130000  34.9330000  48.5960000
  48.3080000  31.9730000  45.8510000  47.1670000  34.0800000  46.1330000
  49.3520000  30.0430000  45.6750000  47.9030000  31.9990000  44.4290000
  46.8060000  34.1200000  44.8170000  46.8660000  34.8830000  46.7820000
  47.1460000  33.0640000  43.9220000  48.2530000  30.9960000  43.5430000
  46.2360000  34.9650000  44.4530000  46.7300000  33.1440000  42.5820000
  47.8360000  31.0580000  42.1980000  48.8670000  30.1720000  43.8750000
  47.0900000  32.1210000  41.7520000  46.1480000  33.9810000  42.2210000
  48.0950000  30.2570000  41.5250000  46.7910000  32.1530000  40.7190000
  49.6950000  38.0280000   9.4220000  50.4320000  36.9780000   9.9910000
  49.2960000  39.0700000  10.3120000  49.3170000  38.0900000   8.0150000
  50.7340000  36.9840000  11.3670000  50.7620000  36.1640000   9.3710000
  49.5570000  39.0450000  11.7090000  48.5590000  40.1120000   9.7480000
  48.5870000  39.1580000   7.5150000  49.7470000  37.0340000   7.1450000
  50.2750000  37.9760000  12.1730000  51.3420000  36.1860000  11.7930000
  49.2060000  39.8130000  12.3790000  48.2490000  40.2010000   8.4180000
  48.2010000  40.9080000  10.4020000  48.2340000  39.1710000   6.1300000
  49.3880000  37.0160000   5.7860000  50.3560000  36.2390000   7.5380000
  50.4860000  37.9220000  13.2210000  47.7390000  41.0870000   8.0520000
  48.6330000  38.1270000   5.3070000  47.4920000  40.2340000   5.5900000
  49.6780000  36.1970000   5.1310000  48.2280000  38.1530000   3.8850000
  47.1310000  40.2740000   4.2730000  47.1910000  41.0370000   6.2380000
  47.4720000  39.2180000   3.3790000  48.5780000  37.1500000   2.9990000
  46.5610000  41.1190000   3.9100000  47.0550000  39.2980000   2.0380000
  48.1620000  37.2120000   1.6540000  49.1930000  36.3260000   3.3310000
  47.4160000  38.2750000   1.2080000  46.4740000  40.1350000   1.6770000
  48.4210000  36.4110000   0.9810000  47.1170000  38.3070000   0.1760000
  49.5870000  38.0280000  22.9370000  50.3230000  36.9780000  23.5060000
  49.1880000  39.0700000  23.8260000  49.2090000  38.0900000  21.5300000
  50.6250000  36.9840000  24.8820000  50.6530000  36.1640000  22.8860000
  49.4490000  39.0450000  25.2240000  48.4500000  40.1120000  23.2630000
  48.4780000  39.1580000  21.0300000  49.6380000  37.0340000  20.6600000
  50.1670000  37.9760000  25.6870000  51.2330000  36.1860000  25.3070000
  49.0970000  39.8130000  25.8940000  48.1400000  40.2010000  21.9330000
  48.0920000  40.9080000  23.9170000  48.1260000  39.1710000  19.6450000
  49.2790000  37.0160000  19.3000000  50.2470000  36.2390000  21.0530000
  50.3770000  37.9220000  26.7360000  47.6300000  41.0870000  21.5670000
  48.5250000  38.1270000  18.8220000  47.3840000  40.2340000  19.1040000
  49.5690000  36.1970000  18.6460000  48.1200000  38.1530000  17.4000000
  47.0230000  40.2740000  17.7880000  47.0830000  41.0370000  19.7530000
  47.3630000  39.2180000  16.8930000  48.4700000  37.1500000  16.5130000
  46.4530000  41.1190000  17.4240000  46.9470000  39.2980000  15.5530000
  48.0530000  37.2120000  15.1690000  49.0840000  36.3260000  16.8460000
  47.3070000  38.2750000  14.7230000  46.3650000  40.1350000  15.1920000
  48.3120000  36.4110000  14.4960000  47.0080000  38.3070000  13.6900000
  49.4780000  38.0280000  36.4510000  50.2150000  36.9780000  37.0200000
  49.0790000  39.0700000  37.3410000  49.1000000  38.0900000  35.0450000
  50.5170000  36.9840000  38.3960000  50.5450000  36.1640000  36.4000000
  49.3400000  39.0450000  38.7380000  48.3420000  40.1120000  36.7770000
  48.3700000  39.1580000  34.5450000  49.5300000  37.0340000  34.1740000
  50.0580000  37.9760000  39.2020000  51.1250000  36.1860000  38.8220000
  48.9890000  39.8130000  39.4080000  48.0320000  40.2010000  35.4470000
  47.9840000  40.9080000  37.4310000  48.0170000  39.1710000  33.1590000
  49.1710000  37.0160000  32.8150000  50.1390000  36.2390000  34.5680000
  50.2690000  37.9220000  40.2500000  47.5220000  41.0870000  35.0810000
  48.4160000  38.1270000  32.3360000  47.2750000  40.2340000  32.6190000
  49.4610000  36.1970000  32.1610000  48.0110000  38.1530000  30.9150000
  46.9140000  40.2740000  31.3020000  46.9740000  41.0370000  33.2670000
  47.2550000  39.2180000  30.4080000  48.3610000  37.1500000  30.0280000
  46.3440000  41.1190000  30.9390000  46.8380000  39.2980000  29.0670000
  47.9450000  37.2120000  28.6830000  48.9760000  36.3260000  30.3600000
  47.1990000  38.2750000  28.2370000  46.2570000  40.1350000  28.7060000
  48.2040000  36.4110000  28.0100000  46.9000000  38.3070000  27.2050000
  49.3700000  38.0280000  49.9660000  50.1060000  36.9780000  50.5350000
  48.9710000  39.0700000  50.8550000  48.9920000  38.0900000  48.5590000
  50.4080000  36.9840000  51.9110000  50.4360000  36.1640000  49.9150000
  49.2320000  39.0450000  52.2530000  48.2330000  40.1120000  50.2920000
  48.2610000  39.1580000  48.0590000  49.4210000  37.0340000  47.6890000
  49.9500000  37.9760000  52.7160000  51.0160000  36.1860000  52.3370000
  48.8800000  39.8130000  52.9230000  47.9230000  40.2010000  48.9620000
  47.8750000  40.9080000  50.9460000  47.9090000  39.1710000  46.6740000
  49.0620000  37.0160000  46.3290000  50.0300000  36.2390000  48.0820000
  50.1600000  37.9220000  53.7650000  47.4130000  41.0870000  48.5960000
  48.3080000  38.1270000  45.8510000  47.1670000  40.2340000  46.1330000
  49.3520000  36.1970000  45.6750000  47.9030000  38.1530000  44.4290000
  46.8060000  40.2740000  44.8170000  46.8660000  41.0370000  46.7820000
  47.1460000  39.2180000  43.9220000  48.2530000  37.1500000  43.5430000
  46.2360000  41.1190000  44.4530000  46.7300000  39.2980000  42.5820000
  47.8360000  37.2120000  42.1980000  48.8670000  36.3260000  43.8750000
  47.0900000  38.2750000  41.7520000  46.1480000  40.1350000  42.2210000
  48.0950000  36.4110000  41.5250000  46.7910000  38.3070000  40.7190000
  49.6950000   1.1040000   9.4220000  50.4320000   0.0540000   9.9910000
  49.2960000   2.1460000  10.3120000  49.3170000   1.1660000   8.0150000
  50.7340000   0.0600000  11.3670000  50.7620000  -0.7600000   9.3710000
  49.5570000   2.1210000  11.7090000  48.5590000   3.1880000   9.7480000
  48.5870000   2.2340000   7.5150000  49.7470000   0.1100000   7.1450000
  50.2750000   1.0520000  12.1730000  51.3420000  -0.7380000  11.7930000
  49.2060000   2.8890000  12.3790000  48.2490000   3.2770000   8.4180000
  48.2010000   3.9840000  10.4020000  48.2340000   2.2470000   6.1300000
  49.3880000   0.0920000   5.7860000  50.3560000  -0.6850000   7.5380000
  50.4860000   0.9980000  13.2210000  47.7390000   4.1630000   8.0520000
  48.6330000   1.2030000   5.3070000  47.4920000   3.3100000   5.5900000
  49.6780000  -0.7270000   5.1310000  48.2280000   1.2290000   3.8850000
  47.1310000   3.3500000   4.2730000  47.1910000   4.1130000   6.2380000
  47.4720000   2.2940000   3.3790000  48.5780000   0.2260000   2.9990000
  46.5610000   4.1950000   3.9100000  47.0550000   2.3740000   2.0380000
  48.1620000   0.2880000   1.6540000  49.1930000  -0.5980000   3.3310000
  47.4160000   1.3510000   1.2080000  46.4740000   3.2110000   1.6770000
  48.4210000  -0.5130000   0.9810000  47.1170000   1.3830000   0.1760000
  49.5870000   1.1040000  22.9370000  50.3230000   0.0540000  23.5060000
  49.1880000   2.1460000  23.8260000  49.2090000   1.1660000  21.5300000
  50.6250000   0.0600000  24.8820000  50.6530000  -0.7600000  22.8860000
  49.4490000   2.1210000  25.2240000  48.4500000   3.1880000  23.2630000
  48.4780000   2.2340000  21.0300000  49.6380000   0.1100000  20.6600000
  50.1670000   1.0520000  25.6870000  51.2330000  -0.7380000  25.3070000
  49.0970000   2.8890000  25.8940000  48.1400000   3.2770000  21.9330000
  48.0920000   3.9840000  23.9170000  48.1260000   2.2470000  19.6450000
  49.2790000   0.0920000  19.3000000  50.2470000  -0.6850000  21.0530000
  50.3770000   0.9980000  26.7360000  47.6300000   4.1630000  21.5670000
  48.5250000   1.2030000  18.8220000  47.3840000   3.3100000  19.1040000
  49.5690000  -0.7270000  18.6460000  48.1200000   1.2290000  17.4000000
  47.0230000   3.3500000  17.7880000  47.0830000   4.1130000  19.7530000
  47.3630000   2.2940000  16.8930000  48.4700000   0.2260000  16.5130000
  46.4530000   4.1950000  17.4240000  46.9470000   2.3740000  15.5530000
  48.0530000   0.2880000  15.1690000  49.0840000  -0.5980000  16.8460000
  47.3070000   1.3510000  14.7230000  46.3650000   3.2110000  15.1920000
  48.3120000  -0.5130000  14.4960000  47.0080000   1.3830000  13.6900000
  49.4780000   1.1040000  36.4510000  50.2150000   0.0540000  37.0200000
  49.0790000   2.1460000  37.3410000  49.1000000   1.1660000  35.0450000
  50.5170000   0.0600000  38.3960000  50.5450000  -0.7600000  36.4000000
  49.3400000   2.1210000  38.7380000  48.3420000   3.1880000  36.7770000
  48.3700000   2.2340000  34.5450000  49.5300000   0.1100000  34.1740000
  50.0580000   1.0520000  39.2020000  51.1250000  -0.7380000  38.8220000
  48.9890000   2.8890000  39.4080000  48.0320000   3.2770000  35.4470000
  47.9840000   3.9840000  37.4310000  48.0170000   2.2470000  33.1590000
  49.1710000   0.0920000  32.8150000  50.1390000  -0.6850000  34.5680000
  50.2690000   0.9980000  40.2500000  47.5220000   4.1630000  35.0810000
  48.4160000   1.2030000  32.3360000  47.2750000   3.3100000  32.6190000
  49.4610000  -0.7270000  32.1610000  48.0110000   1.2290000  30.9150000
  46.9140000   3.3500000  31.3020000  46.9740000   4.1130000  33.2670000
  47.2550000   2.2940000  30.4080000  48.3610000   0.2260000  30.0280000
  46.3440000   4.1950000  30.9390000  46.8380000   2.3740000  29.0670000
  47.9450000   0.2880000  28.6830000  48.9760000  -0.5980000  30.3600000
  47.1990000   1.3510000  28.2370000  46.2570000   3.2110000  28.7060000
  48.2040000  -0.5130000  28.0100000  46.9000000   1.3830000  27.2050000
  49.3700000   1.1040000  49.9660000  50.1060000   0.0540000  50.5350000
  48.9710000   2.1460000  50.8550000  48.9920000   1.1660000  48.5590000
  50.4080000   0.0600000  51.9110000  50.4360000  -0.7600000  49.9150000
  49.2320000   2.1210000  52.2530000  48.2330000   3.1880000  50.2920000
  48.2610000   2.2340000  48.0590000  49.4210000   0.1100000  47.6890000
  49.9500000   1.0520000  52.7160000  51.0160000  -0.7380000  52.3370000
  48.8800000   2.8890000  52.9230000  47.9230000   3.2770000  48.9620000
  47.8750000   3.9840000  50.9460000  47.9090000   2.2470000  46.6740000
  49.0620000   0.0920000  46.3290000  50.0300000  -0.6850000  48.0820000
  50.1600000   0.9980000  53.7650000  47.4130000   4.1630000  48.5960000
  48.3080000   1.2030000  45.8510000  47.1670000   3.3100000  46.1330000
  49.3520000  -0.7270000  45.6750000  47.9030000   1.2290000  44.4290000
  46.8060000   3.3500000  44.8170000  46.8660000   4.1130000  46.7820000
  47.1460000   2.2940000  43.9220000  48.2530000   0.2260000  43.5430000
  46.2360000   4.1950000  44.4530000  46.7300000   2.3740000  42.5820000
  47.8360000   0.2880000  42.1980000  48.8670000  -0.5980000  43.8750000
  47.0900000   1.3510000  41.7520000  46.1480000   3.2110000  42.2210000
  48.0950000  -0.5130000  41.5250000  46.7910000   1.3830000  40.7190000
  49.2610000   7.2580000  63.4810000  49.9980000   6.2080000  64.0500000
  48.8620000   8.3000000  64.3700000  48.8830000   7.3200000  62.0740000
  50.3000000   6.2140000  65.4250000  50.3270000   5.3940000  63.4290000
  49.1230000   8.2750000  65.7670000  48.1250000   9.3420000  63.8060000
  48.1530000   8.3880000  61.5740000  49.3130000   6.2640000  61.2030000
  49.8410000   7.2060000  66.2310000  50.9080000   5.4160000  65.8510000
  48.7720000   9.0430000  66.4380000  47.8150000   9.4310000  62.4760000
  47.7670000  10.1380000  64.4600000  47.8000000   8.4010000  60.1880000
  48.9540000   6.2460000  59.8440000  49.9220000   5.4690000  61.5970000
  50.0520000   7.1520000  67.2800000  47.3050000  10.3170000  62.1100000
  48.1990000   7.3570000  59.3650000  47.0580000   9.4640000  59.6480000
  49.2440000   5.4270000  59.1900000  47.7940000   7.3830000  57.9440000
  46.6970000   9.5040000  58.3320000  46.7570000  10.2670000  60.2970000
  47.0380000   8.4480000  57.4370000  48.1440000   6.3800000  57.0570000
  46.1270000  10.3490000  57.9680000  46.6210000   8.5280000  56.0960000
  47.7280000   6.4420000  55.7120000  48.7590000   5.5560000  57.3900000
  46.9820000   7.5050000  55.2660000  46.0400000   9.3650000  55.7350000
  47.9870000   5.6410000  55.0390000  46.6830000   7.5370000  54.2340000
  49.2610000  13.4120000  63.4810000  49.9980000  12.3620000  64.0500000
  48.8620000  14.4540000  64.3700000  48.8830000  13.4740000  62.0740000
  50.3000000  12.3680000  65.4250000  50.3270000  11.5480000  63.4290000
  49.1230000  14.4290000  65.7670000  48.1250000  15.4960000  63.8060000
  48.1530000  14.5420000  61.5740000  49.3130000  12.4180000  61.2030000
  49.8410000  13.3600000  66.2310000  50.9080000  11.5700000  65.8510000
  48.7720000  15.1970000  66.4380000  47.8150000  15.5850000  62.4760000
  47.7670000  16.2920000  64.4600000  47.8000000  14.5550000  60.1880000
  48.9540000  12.4000000  59.8440000  49.9220000  11.6230000  61.5970000
  50.0520000  13.3060000  67.2800000  47.3050000  16.4710000  62.1100000
  48.1990000  13.5110000  59.3650000  47.0580000  15.6180000  59.6480000
  49.2440000  11.5810000  59.1900000  47.7940000  13.5370000  57.9440000
  46.6970000  15.6580000  58.3320000  46.7570000  16.4210000  60.2970000
  47.0380000  14.6020000  57.4370000  48.1440000  12.5340000  57.0570000
  46.1270000  16.5030000  57.9680000  46.6210000  14.6820000  56.0960000
  47.7280000  12.5960000  55.7120000  48.7590000  11.7100000  57.3900000
  46.9820000  13.6590000  55.2660000  46.0400000  15.5190000  55.7350000
  47.9870000  11.7950000  55.0390000  46.6830000  13.6910000  54.2340000
  49.2610000  19.5660000  63.4810000  49.9980000  18.5160000  64.0500000
  48.8620000  20.6080000  64.3700000  48.8830000  19.6280000  62.0740000
  50.3000000  18.5220000  65.4250000  50.3270000  17.7020000  63.4290000
  49.1230000  20.5830000  65.7670000  48.1250000  21.6500000  63.8060000
  48.1530000  20.6960000  61.5740000  49.3130000  18.5720000  61.2030000
  49.8410000  19.5140000  66.2310000  50.9080000  17.7240000  65.8510000
  48.7720000  21.3510000  66.4380000  47.8150000  21.7390000  62.4760000
  47.7670000  22.4460000  64.4600000  47.8000000  20.7090000  60.1880000
  48.9540000  18.5540000  59.8440000  49.9220000  17.7770000  61.5970000
  50.0520000  19.4600000  67.2800000  47.3050000  22.6250000  62.1100000
  48.1990000  19.6650000  59.3650000  47.0580000  21.7720000  59.6480000
  49.2440000  17.7350000  59.1900000  47.7940000  19.6910000  57.9440000
  46.6970000  21.8120000  58.3320000  46.7570000  22.5750000  60.2970000
  47.0380000  20.7560000  57.4370000  48.1440000  18.6880000  57.0570000
  46.1270000  22.6570000  57.9680000  46.6210000  20.8360000  56.0960000
  47.7280000  18.7500000  55.7120000  48.7590000  17.8640000  57.3900000
  46.9820000  19.8130000  55.2660000  46.0400000  21.6730000  55.7350000
  47.9870000  17.9490000  55.0390000  46.6830000  19.8450000  54.2340000
  49.2610000  25.7200000  63.4810000  49.9980000  24.6700000  64.0500000
  48.8620000  26.7620000  64.3700000  48.8830000  25.7820000  62.0740000
  50.3000000  24.6760000  65.4250000  50.3270000  23.8560000  63.4290000
  49.1230000  26.7370000  65.7670000  48.1250000  27.8040000  63.8060000
  48.1530000  26.8500000  61.5740000  49.3130000  24.7260000  61.2030000
  49.8410000  25.6680000  66.2310000  50.9080000  23.8780000  65.8510000
  48.7720000  27.5050000  66.4380000  47.8150000  27.8930000  62.4760000
  47.7670000  28.6000000  64.4600000  47.8000000  26.8630000  60.1880000
  48.9540000  24.7080000  59.8440000  49.9220000  23.9310000  61.5970000
  50.0520000  25.6140000  67.2800000  47.3050000  28.7790000  62.1100000
  48.1990000  25.8190000  59.3650000  47.0580000  27.9260000  59.6480000
  49.2440000  23.8890000  59.1900000  47.7940000  25.8450000  57.9440000
  46.6970000  27.9660000  58.3320000  46.7570000  28.7290000  60.2970000
  47.0380000  26.9100000  57.4370000  48.1440000  24.8420000  57.0570000
  46.1270000  28.8110000  57.9680000  46.6210000  26.9900000  56.0960000
  47.7280000  24.9040000  55.7120000  48.7590000  24.0180000  57.3900000
  46.9820000  25.9670000  55.2660000  46.0400000  27.8270000  55.7350000
  47.9870000  24.1030000  55.0390000  46.6830000  25.9990000  54.2340000
  49.2610000  31.8740000  63.4810000  49.9980000  30.8240000  64.0500000
  48.8620000  32.9160000  64.3700000  48.8830000  31.9360000  62.0740000
  50.3000000  30.8300000  65.4250000  50.3270000  30.0100000  63.4290000
  49.1230000  32.8910000  65.7670000  48.1250000  33.9580000  63.8060000
  48.1530000  33.0040000  61.5740000  49.3130000  30.8800000  61.2030000
  49.8410000  31.8220000  66.2310000  50.9080000  30.0320000  65.8510000
  48.7720000  33.6590000  66.4380000  47.8150000  34.0470000  62.4760000
  47.7670000  34.7540000  64.4600000  47.8000000  33.0170000  60.1880000
  48.9540000  30.8620000  59.8440000  49.9220000  30.0850000  61.5970000
  50.0520000  31.7680000  67.2800000  47.3050000  34.9330000  62.1100000
  48.1990000  31.9730000  59.3650000  47.0580000  34.0800000  59.6480000
  49.2440000  30.0430000  59.1900000  47.7940000  31.9990000  57.9440000
  46.6970000  34.1200000  58.3320000  46.7570000  34.8830000  60.2970000
  47.0380000  33.0640000  57.4370000  48.1440000  30.9960000  57.0570000
  46.1270000  34.9650000  57.9680000  46.6210000  33.1440000  56.0960000
  47.7280000  31.0580000  55.7120000  48.7590000  30.1720000  57.3900000
  46.9820000  32.1210000  55.2660000  46.0400000  33.9810000  55.7350000
  47.9870000  30.2570000  55.0390000  46.6830000  32.1530000  54.2340000
  49.2610000   1.1040000  63.4810000  49.9980000   0.0540000  64.0500000
  48.8620000   2.1460000  64.3700000  48.8830000   1.1660000  62.0740000
  50.3000000   0.0600000  65.4250000  50.3270000  -0.7600000  63.4290000
  49.1230000   2.1210000  65.7670000  48.1250000   3.1880000  63.8060000
  48.1530000   2.2340000  61.5740000  49.3130000   0.1100000  61.2030000
  49.8410000   1.0520000  66.2310000  50.9080000  -0.7380000  65.8510000
  48.7720000   2.8890000  66.4380000  47.8150000   3.2770000  62.4760000
  47.7670000   3.9840000  64.4600000  47.8000000   2.2470000  60.1880000
  48.9540000   0.0920000  59.8440000  49.9220000  -0.6850000  61.5970000
  50.0520000   0.9980000  67.2800000  47.3050000   4.1630000  62.1100000
  48.1990000   1.2030000  59.3650000  47.0580000   3.3100000  59.6480000
  49.2440000  -0.7270000  59.1900000  47.7940000   1.2290000  57.9440000
  46.6970000   3.3500000  58.3320000  46.7570000   4.1130000  60.2970000
  47.0380000   2.2940000  57.4370000  48.1440000   0.2260000  57.0570000
  46.1270000   4.1950000  57.9680000  46.6210000   2.3740000  56.0960000
  47.7280000   0.2880000  55.7120000  48.7590000  -0.5980000  57.3900000
  46.9820000   1.3510000  55.2660000  46.0400000   3.2110000  55.7350000
  47.9870000  -0.5130000  55.0390000  46.6830000   1.3830000  54.2340000
  49.2610000  38.0280000  63.4810000  49.9980000  36.9780000  64.0500000
  48.8620000  39.0700000  64.3700000  48.8830000  38.0900000  62.0740000
  50.3000000  36.9840000  65.4250000  50.3270000  36.1640000  63.4290000
  49.1230000  39.0450000  65.7670000  48.1250000  40.1120000  63.8060000
  48.1530000  39.1580000  61.5740000  49.3130000  37.0340000  61.2030000
  49.8410000  37.9760000  66.2310000  50.9080000  36.1860000  65.8510000
  48.7720000  39.8130000  66.4380000  47.8150000  40.2010000  62.4760000
  47.7670000  40.9080000  64.4600000  47.8000000  39.1710000  60.1880000
  48.9540000  37.0160000  59.8440000  49.9220000  36.2390000  61.5970000
  50.0520000  37.9220000  67.2800000  47.3050000  41.0870000  62.1100000
  48.1990000  38.1270000  59.3650000  47.0580000  40.2340000  59.6480000
  49.2440000  36.1970000  59.1900000  47.7940000  38.1530000  57.9440000
  46.6970000  40.2740000  58.3320000  46.7570000  41.0370000  60.2970000
  47.0380000  39.2180000  57.4370000  48.1440000  37.1500000  57.0570000
  46.1270000  41.1190000  57.9680000  46.6210000  39.2980000  56.0960000
  47.7280000  37.2120000  55.7120000  48.7590000  36.3260000  57.3900000
  46.9820000  38.2750000  55.2660000  46.0400000  40.1350000  55.7350000
  47.9870000  36.4110000  55.0390000  46.6830000  38.3070000  54.2340000
  51.9560000   4.1810000   4.0920000  51.2200000   3.1310000   3.5230000
  52.3550000   5.2230000   3.2030000  52.3340000   4.2430000   5.4990000
  50.9180000   3.1370000   2.1470000  50.8900000   2.3170000   4.1440000
  52.0940000   5.1980000   1.8060000  53.0930000   6.2650000   3.7670000
  53.0650000   5.3110000   5.9990000  51.9050000   3.1870000   6.3690000
  51.3760000   4.1290000   1.3420000  50.3100000   2.3390000   1.7220000
  52.4460000   5.9660000   1.1350000  53.4030000   6.3540000   5.0960000
  53.4510000   7.0610000   3.1120000  53.4170000   5.3240000   7.3840000
  52.2640000   3.1690000   7.7290000  51.2960000   2.3920000   5.9760000
  51.1660000   4.0750000   0.2930000  53.9130000   7.2400000   5.4630000
  53.0180000   4.2800000   8.2070000  54.1590000   6.3870000   7.9250000
  51.9740000   2.3500000   8.3830000  53.4230000   4.3060000   9.6290000
  54.5200000   6.4270000   9.2410000  54.4600000   7.1900000   7.2760000
  54.1800000   5.3710000  10.1360000  53.0730000   3.3030000  10.5160000
  55.0900000   7.2720000   9.6050000  54.5960000   5.4510000  11.4770000
  53.4900000   3.3650000  11.8600000  52.4590000   2.4790000  10.1830000
  54.2360000   4.4280000  12.3060000  55.1780000   6.2880000  11.8370000
  53.2310000   2.5640000  12.5330000  54.5350000   4.4600000  13.3390000
  51.8480000   4.1810000  17.6070000  51.1110000   3.1310000  17.0380000
  52.2470000   5.2230000  16.7180000  52.2260000   4.2430000  19.0140000
  50.8090000   3.1370000  15.6620000  50.7810000   2.3170000  17.6580000
  51.9860000   5.1980000  15.3200000  52.9840000   6.2650000  17.2810000
  52.9560000   5.3110000  19.5140000  51.7960000   3.1870000  19.8840000
  51.2680000   4.1290000  14.8570000  50.2010000   2.3390000  15.2360000
  52.3370000   5.9660000  14.6500000  53.2940000   6.3540000  18.6110000
  53.3420000   7.0610000  16.6270000  53.3090000   5.3240000  20.8990000
  52.1550000   3.1690000  21.2440000  51.1870000   2.3920000  19.4910000
  51.0570000   4.0750000  13.8080000  53.8040000   7.2400000  18.9770000
  52.9100000   4.2800000  21.7220000  54.0510000   6.3870000  21.4400000
  51.8650000   2.3500000  21.8980000  53.3150000   4.3060000  23.1440000
  54.4120000   6.4270000  22.7560000  54.3520000   7.1900000  20.7910000
  54.0710000   5.3710000  23.6500000  52.9650000   3.3030000  24.0300000
  54.9820000   7.2720000  23.1190000  54.4880000   5.4510000  24.9910000
  53.3810000   3.3650000  25.3750000  52.3500000   2.4790000  23.6980000
  54.1270000   4.4280000  25.8210000  55.0690000   6.2880000  25.3520000
  53.1220000   2.5640000  26.0480000  54.4260000   4.4600000  26.8530000
  51.7390000   4.1810000  31.1210000  51.0030000   3.1310000  30.5520000
  52.1380000   5.2230000  30.2320000  52.1170000   4.2430000  32.5280000
  50.7010000   3.1370000  29.1770000  50.6730000   2.3170000  31.1730000
  51.8770000   5.1980000  28.8350000  52.8760000   6.2650000  30.7960000
  52.8480000   5.3110000  33.0280000  51.6880000   3.1870000  33.3990000
  51.1590000   4.1290000  28.3710000  50.0930000   2.3390000  28.7510000
  52.2290000   5.9660000  28.1640000  53.1860000   6.3540000  32.1250000
  53.2340000   7.0610000  30.1420000  53.2000000   5.3240000  34.4130000
  52.0470000   3.1690000  34.7580000  51.0790000   2.3920000  33.0050000
  50.9490000   4.0750000  27.3220000  53.6960000   7.2400000  32.4920000
  52.8010000   4.2800000  35.2370000  53.9420000   6.3870000  34.9540000
  51.7570000   2.3500000  35.4120000  53.2060000   4.3060000  36.6580000
  54.3030000   6.4270000  36.2700000  54.2430000   7.1900000  34.3050000
  53.9630000   5.3710000  37.1650000  52.8560000   3.3030000  37.5450000
  54.8730000   7.2720000  36.6340000  54.3790000   5.4510000  38.5060000
  53.2730000   3.3650000  38.8900000  52.2420000   2.4790000  37.2120000
  54.0190000   4.4280000  39.3350000  54.9610000   6.2880000  38.8670000
  53.0140000   2.5640000  39.5630000  54.3180000   4.4600000  40.3680000
  51.6310000   4.1810000  44.6360000  50.8940000   3.1310000  44.0670000
  52.0300000   5.2230000  43.7470000  52.0090000   4.2430000  46.0430000
  50.5920000   3.1370000  42.6910000  50.5640000   2.3170000  44.6870000
  51.7690000   5.1980000  42.3490000  52.7670000   6.2650000  44.3100000
  52.7390000   5.3110000  46.5430000  51.5790000   3.1870000  46.9130000
  51.0510000   4.1290000  41.8860000  49.9840000   2.3390000  42.2650000
  52.1200000   5.9660000  41.6790000  53.0770000   6.3540000  45.6400000
  53.1250000   7.0610000  43.6560000  53.0920000   5.3240000  47.9280000
  51.9380000   3.1690000  48.2730000  50.9700000   2.3920000  46.5200000
  50.8400000   4.0750000  40.8370000  53.5870000   7.2400000  46.0060000
  52.6930000   4.2800000  48.7510000  53.8340000   6.3870000  48.4690000
  51.6480000   2.3500000  48.9270000  53.0970000   4.3060000  50.1730000
  54.1950000   6.4270000  49.7850000  54.1350000   7.1900000  47.8200000
  53.8540000   5.3710000  50.6800000  52.7480000   3.3030000  51.0590000
  54.7650000   7.2720000  50.1480000  54.2710000   5.4510000  52.0200000
  53.1640000   3.3650000  52.4040000  52.1330000   2.4790000  50.7270000
  53.9100000   4.4280000  52.8500000  54.8520000   6.2880000  52.3810000
  52.9050000   2.5640000  53.0770000  54.2090000   4.4600000  53.8830000
  51.8480000  10.3350000  17.6070000  51.1110000   9.2850000  17.0380000
  52.2470000  11.3770000  16.7180000  52.2260000  10.3970000  19.0140000
  50.8090000   9.2910000  15.6620000  50.7810000   8.4710000  17.6580000
  51.9860000  11.3520000  15.3200000  52.9840000  12.4190000  17.2810000
  52.9560000  11.4650000  19.5140000  51.7960000   9.3410000  19.8840000
  51.2680000  10.2830000  14.8570000  50.2010000   8.4930000  15.2360000
  52.3370000  12.1200000  14.6500000  53.2940000  12.5080000  18.6110000
  53.3420000  13.2150000  16.6270000  53.3090000  11.4780000  20.8990000
  52.1550000   9.3230000  21.2440000  51.1870000   8.5460000  19.4910000
  51.0570000  10.2290000  13.8080000  53.8040000  13.3940000  18.9770000
  52.9100000  10.4340000  21.7220000  54.0510000  12.5410000  21.4400000
  51.8650000   8.5040000  21.8980000  53.3150000  10.4600000  23.1440000
  54.4120000  12.5810000  22.7560000  54.3520000  13.3440000  20.7910000
  54.0710000  11.5250000  23.6500000  52.9650000   9.4570000  24.0300000
  54.9820000  13.4260000  23.1190000  54.4880000  11.6050000  24.9910000
  53.3810000   9.5190000  25.3750000  52.3500000   8.6330000  23.6980000
  54.1270000  10.5820000  25.8210000  55.0690000  12.4420000  25.3520000
  53.1220000   8.7180000  26.0480000  54.4260000  10.6140000  26.8530000
  51.5220000   4.1810000  58.1500000  50.7860000   3.1310000  57.5820000
  51.9210000   5.2230000  57.2610000  51.9000000   4.2430000  59.5570000
  50.4840000   3.1370000  56.2060000  50.4560000   2.3170000  58.2020000
  51.6600000   5.1980000  55.8640000  52.6590000   6.2650000  57.8250000
  52.6310000   5.3110000  60.0570000  51.4710000   3.1870000  60.4280000
  50.9420000   4.1290000  55.4000000  49.8760000   2.3390000  55.7800000
  52.0120000   5.9660000  55.1930000  52.9690000   6.3540000  59.1550000
  53.0170000   7.0610000  57.1710000  52.9830000   5.3240000  61.4430000
  51.8300000   3.1690000  61.7870000  50.8620000   2.3920000  60.0340000
  50.7320000   4.0750000  54.3520000  53.4790000   7.2400000  59.5210000
  52.5840000   4.2800000  62.2660000  53.7250000   6.3870000  61.9830000
  51.5400000   2.3500000  62.4410000  52.9890000   4.3060000  63.6870000
  54.0860000   6.4270000  63.3000000  54.0260000   7.1900000  61.3340000
  53.7460000   5.3710000  64.1940000  52.6390000   3.3030000  64.5740000
  54.6560000   7.2720000  63.6630000  54.1620000   5.4510000  65.5350000
  53.0560000   3.3650000  65.9190000  52.0250000   2.4790000  64.2410000
  53.8020000   4.4280000  66.3650000  54.7440000   6.2880000  65.8960000
  52.7970000   2.5640000  66.5920000  54.1010000   4.4600000  67.3970000
  51.8480000  16.4890000  17.6070000  51.1110000  15.4390000  17.0380000
  52.2470000  17.5310000  16.7180000  52.2260000  16.5510000  19.0140000
  50.8090000  15.4450000  15.6620000  50.7810000  14.6250000  17.6580000
  51.9860000  17.5060000  15.3200000  52.9840000  18.5730000  17.2810000
  52.9560000  17.6190000  19.5140000  51.7960000  15.4950000  19.8840000
  51.2680000  16.4370000  14.8570000  50.2010000  14.6470000  15.2360000
  52.3370000  18.2740000  14.6500000  53.2940000  18.6620000  18.6110000
  53.3420000  19.3690000  16.6270000  53.3090000  17.6320000  20.8990000
  52.1550000  15.4770000  21.2440000  51.1870000  14.7000000  19.4910000
  51.0570000  16.3830000  13.8080000  53.8040000  19.5480000  18.9770000
  52.9100000  16.5880000  21.7220000  54.0510000  18.6950000  21.4400000
  51.8650000  14.6580000  21.8980000  53.3150000  16.6140000  23.1440000
  54.4120000  18.7350000  22.7560000  54.3520000  19.4980000  20.7910000
  54.0710000  17.6790000  23.6500000  52.9650000  15.6110000  24.0300000
  54.9820000  19.5800000  23.1190000  54.4880000  17.7590000  24.9910000
  53.3810000  15.6730000  25.3750000  52.3500000  14.7870000  23.6980000
  54.1270000  16.7360000  25.8210000  55.0690000  18.5960000  25.3520000
  53.1220000  14.8720000  26.0480000  54.4260000  16.7680000  26.8530000
  51.8480000  22.6430000  17.6070000  51.1110000  21.5930000  17.0380000
  52.2470000  23.6850000  16.7180000  52.2260000  22.7050000  19.0140000
  50.8090000  21.5990000  15.6620000  50.7810000  20.7790000  17.6580000
  51.9860000  23.6600000  15.3200000  52.9840000  24.7270000  17.2810000
  52.9560000  23.7730000  19.5140000  51.7960000  21.6490000  19.8840000
  51.2680000  22.5910000  14.8570000  50.2010000  20.8010000  15.2360000
  52.3370000  24.4280000  14.6500000  53.2940000  24.8160000  18.6110000
  53.3420000  25.5230000  16.6270000  53.3090000  23.7860000  20.8990000
  52.1550000  21.6310000  21.2440000  51.1870000  20.8540000  19.4910000
  51.0570000  22.5370000  13.8080000  53.8040000  25.7020000  18.9770000
  52.9100000  22.7420000  21.7220000  54.0510000  24.8490000  21.4400000
  51.8650000  20.8120000  21.8980000  53.3150000  22.7680000  23.1440000
  54.4120000  24.8890000  22.7560000  54.3520000  25.6520000  20.7910000
  54.0710000  23.8330000  23.6500000  52.9650000  21.7650000  24.0300000
  54.9820000  25.7340000  23.1190000  54.4880000  23.9130000  24.9910000
  53.3810000  21.8270000  25.3750000  52.3500000  20.9410000  23.6980000
  54.1270000  22.8900000  25.8210000  55.0690000  24.7500000  25.3520000
  53.1220000  21.0260000  26.0480000  54.4260000  22.9220000  26.8530000
  51.8480000  28.7970000  17.6070000  51.1110000  27.7470000  17.0380000
  52.2470000  29.8390000  16.7180000  52.2260000  28.8590000  19.0140000
  50.8090000  27.7530000  15.6620000  50.7810000  26.9330000  17.6580000
  51.9860000  29.8140000  15.3200000  52.9840000  30.8810000  17.2810000
  52.9560000  29.9270000  19.5140000  51.7960000  27.8030000  19.8840000
  51.2680000  28.7450000  14.8570000  50.2010000  26.9550000  15.2360000
  52.3370000  30.5820000  14.6500000  53.2940000  30.9700000  18.6110000
  53.3420000  31.6770000  16.6270000  53.3090000  29.9400000  20.8990000
  52.1550000  27.7850000  21.2440000  51.1870000  27.0080000  19.4910000
  51.0570000  28.6910000  13.8080000  53.8040000  31.8560000  18.9770000
  52.9100000  28.8960000  21.7220000  54.0510000  31.0030000  21.4400000
  51.8650000  26.9660000  21.8980000  53.3150000  28.9220000  23.1440000
  54.4120000  31.0430000  22.7560000  54.3520000  31.8060000  20.7910000
  54.0710000  29.9870000  23.6500000  52.9650000  27.9190000  24.0300000
  54.9820000  31.8880000  23.1190000  54.4880000  30.0670000  24.9910000
  53.3810000  27.9810000  25.3750000  52.3500000  27.0950000  23.6980000
  54.1270000  29.0440000  25.8210000  55.0690000  30.9040000  25.3520000
  53.1220000  27.1800000  26.0480000  54.4260000  29.0760000  26.8530000
  51.8480000  34.9510000  17.6070000  51.1110000  33.9010000  17.0380000
  52.2470000  35.9930000  16.7180000  52.2260000  35.0130000  19.0140000
  50.8090000  33.9070000  15.6620000  50.7810000  33.0870000  17.6580000
  51.9860000  35.9680000  15.3200000  52.9840000  37.0350000  17.2810000
  52.9560000  36.0810000  19.5140000  51.7960000  33.9570000  19.8840000
  51.2680000  34.8990000  14.8570000  50.2010000  33.1090000  15.2360000
  52.3370000  36.7360000  14.6500000  53.2940000  37.1240000  18.6110000
  53.3420000  37.8310000  16.6270000  53.3090000  36.0940000  20.8990000
  52.1550000  33.9390000  21.2440000  51.1870000  33.1620000  19.4910000
  51.0570000  34.8450000  13.8080000  53.8040000  38.0100000  18.9770000
  52.9100000  35.0500000  21.7220000  54.0510000  37.1570000  21.4400000
  51.8650000  33.1200000  21.8980000  53.3150000  35.0760000  23.1440000
  54.4120000  37.1970000  22.7560000  54.3520000  37.9600000  20.7910000
  54.0710000  36.1410000  23.6500000  52.9650000  34.0730000  24.0300000
  54.9820000  38.0420000  23.1190000  54.4880000  36.2210000  24.9910000
  53.3810000  34.1350000  25.3750000  52.3500000  33.2490000  23.6980000
  54.1270000  35.1980000  25.8210000  55.0690000  37.0580000  25.3520000
  53.1220000  33.3340000  26.0480000  54.4260000  35.2300000  26.8530000
  51.8480000  41.1050000  17.6070000  51.1110000  40.0550000  17.0380000
  52.2470000  42.1470000  16.7180000  52.2260000  41.1670000  19.0140000
  50.8090000  40.0610000  15.6620000  50.7810000  39.2410000  17.6580000
  51.9860000  42.1220000  15.3200000  52.9840000  43.1890000  17.2810000
  52.9560000  42.2350000  19.5140000  51.7960000  40.1110000  19.8840000
  51.2680000  41.0530000  14.8570000  50.2010000  39.2630000  15.2360000
  52.3370000  42.8900000  14.6500000  53.2940000  43.2780000  18.6110000
  53.3420000  43.9850000  16.6270000  53.3090000  42.2480000  20.8990000
  52.1550000  40.0930000  21.2440000  51.1870000  39.3160000  19.4910000
  51.0570000  40.9990000  13.8080000  53.8040000  44.1640000  18.9770000
  52.9100000  41.2040000  21.7220000  54.0510000  43.3110000  21.4400000
  51.8650000  39.2740000  21.8980000  53.3150000  41.2300000  23.1440000
  54.4120000  43.3510000  22.7560000  54.3520000  44.1140000  20.7910000
  54.0710000  42.2950000  23.6500000  52.9650000  40.2270000  24.0300000
  54.9820000  44.1960000  23.1190000  54.4880000  42.3750000  24.9910000
  53.3810000  40.2890000  25.3750000  52.3500000  39.4030000  23.6980000
  54.1270000  41.3520000  25.8210000  55.0690000  43.2120000  25.3520000
  53.1220000  39.4880000  26.0480000  54.4260000  41.3840000  26.8530000
  51.9560000  10.3350000   4.0920000  51.2200000   9.2850000   3.5230000
  52.3550000  11.3770000   3.2030000  52.3340000  10.3970000   5.4990000
  50.9180000   9.2910000   2.1470000  50.8900000   8.4710000   4.1440000
  52.0940000  11.3520000   1.8060000  53.0930000  12.4190000   3.7670000
  53.0650000  11.4650000   5.9990000  51.9050000   9.3410000   6.3690000
  51.3760000  10.2830000   1.3420000  50.3100000   8.4930000   1.7220000
  52.4460000  12.1200000   1.1350000  53.4030000  12.5080000   5.0960000
  53.4510000  13.2150000   3.1120000  53.4170000  11.4780000   7.3840000
  52.2640000   9.3230000   7.7290000  51.2960000   8.5460000   5.9760000
  51.1660000  10.2290000   0.2930000  53.9130000  13.3940000   5.4630000
  53.0180000  10.4340000   8.2070000  54.1590000  12.5410000   7.9250000
  51.9740000   8.5040000   8.3830000  53.4230000  10.4600000   9.6290000
  54.5200000  12.5810000   9.2410000  54.4600000  13.3440000   7.2760000
  54.1800000  11.5250000  10.1360000  53.0730000   9.4570000  10.5160000
  55.0900000  13.4260000   9.6050000  54.5960000  11.6050000  11.4770000
  53.4900000   9.5190000  11.8600000  52.4590000   8.6330000  10.1830000
  54.2360000  10.5820000  12.3060000  55.1780000  12.4420000  11.8370000
  53.2310000   8.7180000  12.5330000  54.5350000  10.6140000  13.3390000
  51.7390000  10.3350000  31.1210000  51.0030000   9.2850000  30.5520000
  52.1380000  11.3770000  30.2320000  52.1170000  10.3970000  32.5280000
  50.7010000   9.2910000  29.1770000  50.6730000   8.4710000  31.1730000
  51.8770000  11.3520000  28.8350000  52.8760000  12.4190000  30.7960000
  52.8480000  11.4650000  33.0280000  51.6880000   9.3410000  33.3990000
  51.1590000  10.2830000  28.3710000  50.0930000   8.4930000  28.7510000
  52.2290000  12.1200000  28.1640000  53.1860000  12.5080000  32.1250000
  53.2340000  13.2150000  30.1420000  53.2000000  11.4780000  34.4130000
  52.0470000   9.3230000  34.7580000  51.0790000   8.5460000  33.0050000
  50.9490000  10.2290000  27.3220000  53.6960000  13.3940000  32.4920000
  52.8010000  10.4340000  35.2370000  53.9420000  12.5410000  34.9540000
  51.7570000   8.5040000  35.4120000  53.2060000  10.4600000  36.6580000
  54.3030000  12.5810000  36.2700000  54.2430000  13.3440000  34.3050000
  53.9630000  11.5250000  37.1650000  52.8560000   9.4570000  37.5450000
  54.8730000  13.4260000  36.6340000  54.3790000  11.6050000  38.5060000
  53.2730000   9.5190000  38.8900000  52.2420000   8.6330000  37.2120000
  54.0190000  10.5820000  39.3350000  54.9610000  12.4420000  38.8670000
  53.0140000   8.7180000  39.5630000  54.3180000  10.6140000  40.3680000
  51.6310000  10.3350000  44.6360000  50.8940000   9.2850000  44.0670000
  52.0300000  11.3770000  43.7470000  52.0090000  10.3970000  46.0430000
  50.5920000   9.2910000  42.6910000  50.5640000   8.4710000  44.6870000
  51.7690000  11.3520000  42.3490000  52.7670000  12.4190000  44.3100000
  52.7390000  11.4650000  46.5430000  51.5790000   9.3410000  46.9130000
  51.0510000  10.2830000  41.8860000  49.9840000   8.4930000  42.2650000
  52.1200000  12.1200000  41.6790000  53.0770000  12.5080000  45.6400000
  53.1250000  13.2150000  43.6560000  53.0920000  11.4780000  47.9280000
  51.9380000   9.3230000  48.2730000  50.9700000   8.5460000  46.5200000
  50.8400000  10.2290000  40.8370000  53.5870000  13.3940000  46.0060000
  52.6930000  10.4340000  48.7510000  53.8340000  12.5410000  48.4690000
  51.6480000   8.5040000  48.9270000  53.0970000  10.4600000  50.1730000
  54.1950000  12.5810000  49.7850000  54.1350000  13.3440000  47.8200000
  53.8540000  11.5250000  50.6800000  52.7480000   9.4570000  51.0590000
  54.7650000  13.4260000  50.1480000  54.2710000  11.6050000  52.0200000
  53.1640000   9.5190000  52.4040000  52.1330000   8.6330000  50.7270000
  53.9100000  10.5820000  52.8500000  54.8520000  12.4420000  52.3810000
  52.9050000   8.7180000  53.0770000  54.2090000  10.6140000  53.8830000
  51.9560000  16.4890000   4.0920000  51.2200000  15.4390000   3.5230000
  52.3550000  17.5310000   3.2030000  52.3340000  16.5510000   5.4990000
  50.9180000  15.4450000   2.1470000  50.8900000  14.6250000   4.1440000
  52.0940000  17.5060000   1.8060000  53.0930000  18.5730000   3.7670000
  53.0650000  17.6190000   5.9990000  51.9050000  15.4950000   6.3690000
  51.3760000  16.4370000   1.3420000  50.3100000  14.6470000   1.7220000
  52.4460000  18.2740000   1.1350000  53.4030000  18.6620000   5.0960000
  53.4510000  19.3690000   3.1120000  53.4170000  17.6320000   7.3840000
  52.2640000  15.4770000   7.7290000  51.2960000  14.7000000   5.9760000
  51.1660000  16.3830000   0.2930000  53.9130000  19.5480000   5.4630000
  53.0180000  16.5880000   8.2070000  54.1590000  18.6950000   7.9250000
  51.9740000  14.6580000   8.3830000  53.4230000  16.6140000   9.6290000
  54.5200000  18.7350000   9.2410000  54.4600000  19.4980000   7.2760000
  54.1800000  17.6790000  10.1360000  53.0730000  15.6110000  10.5160000
  55.0900000  19.5800000   9.6050000  54.5960000  17.7590000  11.4770000
  53.4900000  15.6730000  11.8600000  52.4590000  14.7870000  10.1830000
  54.2360000  16.7360000  12.3060000  55.1780000  18.5960000  11.8370000
  53.2310000  14.8720000  12.5330000  54.5350000  16.7680000  13.3390000
  51.7390000  16.4890000  31.1210000  51.0030000  15.4390000  30.5520000
  52.1380000  17.5310000  30.2320000  52.1170000  16.5510000  32.5280000
  50.7010000  15.4450000  29.1770000  50.6730000  14.6250000  31.1730000
  51.8770000  17.5060000  28.8350000  52.8760000  18.5730000  30.7960000
  52.8480000  17.6190000  33.0280000  51.6880000  15.4950000  33.3990000
  51.1590000  16.4370000  28.3710000  50.0930000  14.6470000  28.7510000
  52.2290000  18.2740000  28.1640000  53.1860000  18.6620000  32.1250000
  53.2340000  19.3690000  30.1420000  53.2000000  17.6320000  34.4130000
  52.0470000  15.4770000  34.7580000  51.0790000  14.7000000  33.0050000
  50.9490000  16.3830000  27.3220000  53.6960000  19.5480000  32.4920000
  52.8010000  16.5880000  35.2370000  53.9420000  18.6950000  34.9540000
  51.7570000  14.6580000  35.4120000  53.2060000  16.6140000  36.6580000
  54.3030000  18.7350000  36.2700000  54.2430000  19.4980000  34.3050000
  53.9630000  17.6790000  37.1650000  52.8560000  15.6110000  37.5450000
  54.8730000  19.5800000  36.6340000  54.3790000  17.7590000  38.5060000
  53.2730000  15.6730000  38.8900000  52.2420000  14.7870000  37.2120000
  54.0190000  16.7360000  39.3350000  54.9610000  18.5960000  38.8670000
  53.0140000  14.8720000  39.5630000  54.3180000  16.7680000  40.3680000
  51.6310000  16.4890000  44.6360000  50.8940000  15.4390000  44.0670000
  52.0300000  17.5310000  43.7470000  52.0090000  16.5510000  46.0430000
  50.5920000  15.4450000  42.6910000  50.5640000  14.6250000  44.6870000
  51.7690000  17.5060000  42.3490000  52.7670000  18.5730000  44.3100000
  52.7390000  17.6190000  46.5430000  51.5790000  15.4950000  46.9130000
  51.0510000  16.4370000  41.8860000  49.9840000  14.6470000  42.2650000
  52.1200000  18.2740000  41.6790000  53.0770000  18.6620000  45.6400000
  53.1250000  19.3690000  43.6560000  53.0920000  17.6320000  47.9280000
  51.9380000  15.4770000  48.2730000  50.9700000  14.7000000  46.5200000
  50.8400000  16.3830000  40.8370000  53.5870000  19.5480000  46.0060000
  52.6930000  16.5880000  48.7510000  53.8340000  18.6950000  48.4690000
  51.6480000  14.6580000  48.9270000  53.0970000  16.6140000  50.1730000
  54.1950000  18.7350000  49.7850000  54.1350000  19.4980000  47.8200000
  53.8540000  17.6790000  50.6800000  52.7480000  15.6110000  51.0590000
  54.7650000  19.5800000  50.1480000  54.2710000  17.7590000  52.0200000
  53.1640000  15.6730000  52.4040000  52.1330000  14.7870000  50.7270000
  53.9100000  16.7360000  52.8500000  54.8520000  18.5960000  52.3810000
  52.9050000  14.8720000  53.0770000  54.2090000  16.7680000  53.8830000
  51.9560000  22.6430000   4.0920000  51.2200000  21.5930000   3.5230000
  52.3550000  23.6850000   3.2030000  52.3340000  22.7050000   5.4990000
  50.9180000  21.5990000   2.1470000  50.8900000  20.7790000   4.1440000
  52.0940000  23.6600000   1.8060000  53.0930000  24.7270000   3.7670000
  53.0650000  23.7730000   5.9990000  51.9050000  21.6490000   6.3690000
  51.3760000  22.5910000   1.3420000  50.3100000  20.8010000   1.7220000
  52.4460000  24.4280000   1.1350000  53.4030000  24.8160000   5.0960000
  53.4510000  25.5230000   3.1120000  53.4170000  23.7860000   7.3840000
  52.2640000  21.6310000   7.7290000  51.2960000  20.8540000   5.9760000
  51.1660000  22.5370000   0.2930000  53.9130000  25.7020000   5.4630000
  53.0180000  22.7420000   8.2070000  54.1590000  24.8490000   7.9250000
  51.9740000  20.8120000   8.3830000  53.4230000  22.7680000   9.6290000
  54.5200000  24.8890000   9.2410000  54.4600000  25.6520000   7.2760000
  54.1800000  23.8330000  10.1360000  53.0730000  21.7650000  10.5160000
  55.0900000  25.7340000   9.6050000  54.5960000  23.9130000  11.4770000
  53.4900000  21.8270000  11.8600000  52.4590000  20.9410000  10.1830000
  54.2360000  22.8900000  12.3060000  55.1780000  24.7500000  11.8370000
  53.2310000  21.0260000  12.5330000  54.5350000  22.9220000  13.3390000
  51.7390000  22.6430000  31.1210000  51.0030000  21.5930000  30.5520000
  52.1380000  23.6850000  30.2320000  52.1170000  22.7050000  32.5280000
  50.7010000  21.5990000  29.1770000  50.6730000  20.7790000  31.1730000
  51.8770000  23.6600000  28.8350000  52.8760000  24.7270000  30.7960000
  52.8480000  23.7730000  33.0280000  51.6880000  21.6490000  33.3990000
  51.1590000  22.5910000  28.3710000  50.0930000  20.8010000  28.7510000
  52.2290000  24.4280000  28.1640000  53.1860000  24.8160000  32.1250000
  53.2340000  25.5230000  30.1420000  53.2000000  23.7860000  34.4130000
  52.0470000  21.6310000  34.7580000  51.0790000  20.8540000  33.0050000
  50.9490000  22.5370000  27.3220000  53.6960000  25.7020000  32.4920000
  52.8010000  22.7420000  35.2370000  53.9420000  24.8490000  34.9540000
  51.7570000  20.8120000  35.4120000  53.2060000  22.7680000  36.6580000
  54.3030000  24.8890000  36.2700000  54.2430000  25.6520000  34.3050000
  53.9630000  23.8330000  37.1650000  52.8560000  21.7650000  37.5450000
  54.8730000  25.7340000  36.6340000  54.3790000  23.9130000  38.5060000
  53.2730000  21.8270000  38.8900000  52.2420000  20.9410000  37.2120000
  54.0190000  22.8900000  39.3350000  54.9610000  24.7500000  38.8670000
  53.0140000  21.0260000  39.5630000  54.3180000  22.9220000  40.3680000
  51.6310000  22.6430000  44.6360000  50.8940000  21.5930000  44.0670000
  52.0300000  23.6850000  43.7470000  52.0090000  22.7050000  46.0430000
  50.5920000  21.5990000  42.6910000  50.5640000  20.7790000  44.6870000
  51.7690000  23.6600000  42.3490000  52.7670000  24.7270000  44.3100000
  52.7390000  23.7730000  46.5430000  51.5790000  21.6490000  46.9130000
  51.0510000  22.5910000  41.8860000  49.9840000  20.8010000  42.2650000
  52.1200000  24.4280000  41.6790000  53.0770000  24.8160000  45.6400000
  53.1250000  25.5230000  43.6560000  53.0920000  23.7860000  47.9280000
  51.9380000  21.6310000  48.2730000  50.9700000  20.8540000  46.5200000
  50.8400000  22.5370000  40.8370000  53.5870000  25.7020000  46.0060000
  52.6930000  22.7420000  48.7510000  53.8340000  24.8490000  48.4690000
  51.6480000  20.8120000  48.9270000  53.0970000  22.7680000  50.1730000
  54.1950000  24.8890000  49.7850000  54.1350000  25.6520000  47.8200000
  53.8540000  23.8330000  50.6800000  52.7480000  21.7650000  51.0590000
  54.7650000  25.7340000  50.1480000  54.2710000  23.9130000  52.0200000
  53.1640000  21.8270000  52.4040000  52.1330000  20.9410000  50.7270000
  53.9100000  22.8900000  52.8500000  54.8520000  24.7500000  52.3810000
  52.9050000  21.0260000  53.0770000  54.2090000  22.9220000  53.8830000
  51.9560000  28.7970000   4.0920000  51.2200000  27.7470000   3.5230000
  52.3550000  29.8390000   3.2030000  52.3340000  28.8590000   5.4990000
  50.9180000  27.7530000   2.1470000  50.8900000  26.9330000   4.1440000
  52.0940000  29.8140000   1.8060000  53.0930000  30.8810000   3.7670000
  53.0650000  29.9270000   5.9990000  51.9050000  27.8030000   6.3690000
  51.3760000  28.7450000   1.3420000  50.3100000  26.9550000   1.7220000
  52.4460000  30.5820000   1.1350000  53.4030000  30.9700000   5.0960000
  53.4510000  31.6770000   3.1120000  53.4170000  29.9400000   7.3840000
  52.2640000  27.7850000   7.7290000  51.2960000  27.0080000   5.9760000
  51.1660000  28.6910000   0.2930000  53.9130000  31.8560000   5.4630000
  53.0180000  28.8960000   8.2070000  54.1590000  31.0030000   7.9250000
  51.9740000  26.9660000   8.3830000  53.4230000  28.9220000   9.6290000
  54.5200000  31.0430000   9.2410000  54.4600000  31.8060000   7.2760000
  54.1800000  29.9870000  10.1360000  53.0730000  27.9190000  10.5160000
  55.0900000  31.8880000   9.6050000  54.5960000  30.0670000  11.4770000
  53.4900000  27.9810000  11.8600000  52.4590000  27.0950000  10.1830000
  54.2360000  29.0440000  12.3060000  55.1780000  30.9040000  11.8370000
  53.2310000  27.1800000  12.5330000  54.5350000  29.0760000  13.3390000
  51.7390000  28.7970000  31.1210000  51.0030000  27.7470000  30.5520000
  52.1380000  29.8390000  30.2320000  52.1170000  28.8590000  32.5280000
  50.7010000  27.7530000  29.1770000  50.6730000  26.9330000  31.1730000
  51.8770000  29.8140000  28.8350000  52.8760000  30.8810000  30.7960000
  52.8480000  29.9270000  33.0280000  51.6880000  27.8030000  33.3990000
  51.1590000  28.7450000  28.3710000  50.0930000  26.9550000  28.7510000
  52.2290000  30.5820000  28.1640000  53.1860000  30.9700000  32.1250000
  53.2340000  31.6770000  30.1420000  53.2000000  29.9400000  34.4130000
  52.0470000  27.7850000  34.7580000  51.0790000  27.0080000  33.0050000
  50.9490000  28.6910000  27.3220000  53.6960000  31.8560000  32.4920000
  52.8010000  28.8960000  35.2370000  53.9420000  31.0030000  34.9540000
  51.7570000  26.9660000  35.4120000  53.2060000  28.9220000  36.6580000
  54.3030000  31.0430000  36.2700000  54.2430000  31.8060000  34.3050000
  53.9630000  29.9870000  37.1650000  52.8560000  27.9190000  37.5450000
  54.8730000  31.8880000  36.6340000  54.3790000  30.0670000  38.5060000
  53.2730000  27.9810000  38.8900000  52.2420000  27.0950000  37.2120000
  54.0190000  29.0440000  39.3350000  54.9610000  30.9040000  38.8670000
  53.0140000  27.1800000  39.5630000  54.3180000  29.0760000  40.3680000
  51.6310000  28.7970000  44.6360000  50.8940000  27.7470000  44.0670000
  52.0300000  29.8390000  43.7470000  52.0090000  28.8590000  46.0430000
  50.5920000  27.7530000  42.6910000  50.5640000  26.9330000  44.6870000
  51.7690000  29.8140000  42.3490000  52.7670000  30.8810000  44.3100000
  52.7390000  29.9270000  46.5430000  51.5790000  27.8030000  46.9130000
  51.0510000  28.7450000  41.8860000  49.9840000  26.9550000  42.2650000
  52.1200000  30.5820000  41.6790000  53.0770000  30.9700000  45.6400000
  53.1250000  31.6770000  43.6560000  53.0920000  29.9400000  47.9280000
  51.9380000  27.7850000  48.2730000  50.9700000  27.0080000  46.5200000
  50.8400000  28.6910000  40.8370000  53.5870000  31.8560000  46.0060000
  52.6930000  28.8960000  48.7510000  53.8340000  31.0030000  48.4690000
  51.6480000  26.9660000  48.9270000  53.0970000  28.9220000  50.1730000
  54.1950000  31.0430000  49.7850000  54.1350000  31.8060000  47.8200000
  53.8540000  29.9870000  50.6800000  52.7480000  27.9190000  51.0590000
  54.7650000  31.8880000  50.1480000  54.2710000  30.0670000  52.0200000
  53.1640000  27.9810000  52.4040000  52.1330000  27.0950000  50.7270000
  53.9100000  29.0440000  52.8500000  54.8520000  30.9040000  52.3810000
  52.9050000  27.1800000  53.0770000  54.2090000  29.0760000  53.8830000
  51.9560000  34.9510000   4.0920000  51.2200000  33.9010000   3.5230000
  52.3550000  35.9930000   3.2030000  52.3340000  35.0130000   5.4990000
  50.9180000  33.9070000   2.1470000  50.8900000  33.0870000   4.1440000
  52.0940000  35.9680000   1.8060000  53.0930000  37.0350000   3.7670000
  53.0650000  36.0810000   5.9990000  51.9050000  33.9570000   6.3690000
  51.3760000  34.8990000   1.3420000  50.3100000  33.1090000   1.7220000
  52.4460000  36.7360000   1.1350000  53.4030000  37.1240000   5.0960000
  53.4510000  37.8310000   3.1120000  53.4170000  36.0940000   7.3840000
  52.2640000  33.9390000   7.7290000  51.2960000  33.1620000   5.9760000
  51.1660000  34.8450000   0.2930000  53.9130000  38.0100000   5.4630000
  53.0180000  35.0500000   8.2070000  54.1590000  37.1570000   7.9250000
  51.9740000  33.1200000   8.3830000  53.4230000  35.0760000   9.6290000
  54.5200000  37.1970000   9.2410000  54.4600000  37.9600000   7.2760000
  54.1800000  36.1410000  10.1360000  53.0730000  34.0730000  10.5160000
  55.0900000  38.0420000   9.6050000  54.5960000  36.2210000  11.4770000
  53.4900000  34.1350000  11.8600000  52.4590000  33.2490000  10.1830000
  54.2360000  35.1980000  12.3060000  55.1780000  37.0580000  11.8370000
  53.2310000  33.3340000  12.5330000  54.5350000  35.2300000  13.3390000
  51.7390000  34.9510000  31.1210000  51.0030000  33.9010000  30.5520000
  52.1380000  35.9930000  30.2320000  52.1170000  35.0130000  32.5280000
  50.7010000  33.9070000  29.1770000  50.6730000  33.0870000  31.1730000
  51.8770000  35.9680000  28.8350000  52.8760000  37.0350000  30.7960000
  52.8480000  36.0810000  33.0280000  51.6880000  33.9570000  33.3990000
  51.1590000  34.8990000  28.3710000  50.0930000  33.1090000  28.7510000
  52.2290000  36.7360000  28.1640000  53.1860000  37.1240000  32.1250000
  53.2340000  37.8310000  30.1420000  53.2000000  36.0940000  34.4130000
  52.0470000  33.9390000  34.7580000  51.0790000  33.1620000  33.0050000
  50.9490000  34.8450000  27.3220000  53.6960000  38.0100000  32.4920000
  52.8010000  35.0500000  35.2370000  53.9420000  37.1570000  34.9540000
  51.7570000  33.1200000  35.4120000  53.2060000  35.0760000  36.6580000
  54.3030000  37.1970000  36.2700000  54.2430000  37.9600000  34.3050000
  53.9630000  36.1410000  37.1650000  52.8560000  34.0730000  37.5450000
  54.8730000  38.0420000  36.6340000  54.3790000  36.2210000  38.5060000
  53.2730000  34.1350000  38.8900000  52.2420000  33.2490000  37.2120000
  54.0190000  35.1980000  39.3350000  54.9610000  37.0580000  38.8670000
  53.0140000  33.3340000  39.5630000  54.3180000  35.2300000  40.3680000
  51.6310000  34.9510000  44.6360000  50.8940000  33.9010000  44.0670000
  52.0300000  35.9930000  43.7470000  52.0090000  35.0130000  46.0430000
  50.5920000  33.9070000  42.6910000  50.5640000  33.0870000  44.6870000
  51.7690000  35.9680000  42.3490000  52.7670000  37.0350000  44.3100000
  52.7390000  36.0810000  46.5430000  51.5790000  33.9570000  46.9130000
  51.0510000  34.8990000  41.8860000  49.9840000  33.1090000  42.2650000
  52.1200000  36.7360000  41.6790000  53.0770000  37.1240000  45.6400000
  53.1250000  37.8310000  43.6560000  53.0920000  36.0940000  47.9280000
  51.9380000  33.9390000  48.2730000  50.9700000  33.1620000  46.5200000
  50.8400000  34.8450000  40.8370000  53.5870000  38.0100000  46.0060000
  52.6930000  35.0500000  48.7510000  53.8340000  37.1570000  48.4690000
  51.6480000  33.1200000  48.9270000  53.0970000  35.0760000  50.1730000
  54.1950000  37.1970000  49.7850000  54.1350000  37.9600000  47.8200000
  53.8540000  36.1410000  50.6800000  52.7480000  34.0730000  51.0590000
  54.7650000  38.0420000  50.1480000  54.2710000  36.2210000  52.0200000
  53.1640000  34.1350000  52.4040000  52.1330000  33.2490000  50.7270000
  53.9100000  35.1980000  52.8500000  54.8520000  37.0580000  52.3810000
  52.9050000  33.3340000  53.0770000  54.2090000  35.2300000  53.8830000
  51.9560000  41.1050000   4.0920000  51.2200000  40.0550000   3.5230000
  52.3550000  42.1470000   3.2030000  52.3340000  41.1670000   5.4990000
  50.9180000  40.0610000   2.1470000  50.8900000  39.2410000   4.1440000
  52.0940000  42.1220000   1.8060000  53.0930000  43.1890000   3.7670000
  53.0650000  42.2350000   5.9990000  51.9050000  40.1110000   6.3690000
  51.3760000  41.0530000   1.3420000  50.3100000  39.2630000   1.7220000
  52.4460000  42.8900000   1.1350000  53.4030000  43.2780000   5.0960000
  53.4510000  43.9850000   3.1120000  53.4170000  42.2480000   7.3840000
  52.2640000  40.0930000   7.7290000  51.2960000  39.3160000   5.9760000
  51.1660000  40.9990000   0.2930000  53.9130000  44.1640000   5.4630000
  53.0180000  41.2040000   8.2070000  54.1590000  43.3110000   7.9250000
  51.9740000  39.2740000   8.3830000  53.4230000  41.2300000   9.6290000
  54.5200000  43.3510000   9.2410000  54.4600000  44.1140000   7.2760000
  54.1800000  42.2950000  10.1360000  53.0730000  40.2270000  10.5160000
  55.0900000  44.1960000   9.6050000  54.5960000  42.3750000  11.4770000
  53.4900000  40.2890000  11.8600000  52.4590000  39.4030000  10.1830000
  54.2360000  41.3520000  12.3060000  55.1780000  43.2120000  11.8370000
  53.2310000  39.4880000  12.5330000  54.5350000  41.3840000  13.3390000
  51.7390000  41.1050000  31.1210000  51.0030000  40.0550000  30.5520000
  52.1380000  42.1470000  30.2320000  52.1170000  41.1670000  32.5280000
  50.7010000  40.0610000  29.1770000  50.6730000  39.2410000  31.1730000
  51.8770000  42.1220000  28.8350000  52.8760000  43.1890000  30.7960000
  52.8480000  42.2350000  33.0280000  51.6880000  40.1110000  33.3990000
  51.1590000  41.0530000  28.3710000  50.0930000  39.2630000  28.7510000
  52.2290000  42.8900000  28.1640000  53.1860000  43.2780000  32.1250000
  53.2340000  43.9850000  30.1420000  53.2000000  42.2480000  34.4130000
  52.0470000  40.0930000  34.7580000  51.0790000  39.3160000  33.0050000
  50.9490000  40.9990000  27.3220000  53.6960000  44.1640000  32.4920000
  52.8010000  41.2040000  35.2370000  53.9420000  43.3110000  34.9540000
  51.7570000  39.2740000  35.4120000  53.2060000  41.2300000  36.6580000
  54.3030000  43.3510000  36.2700000  54.2430000  44.1140000  34.3050000
  53.9630000  42.2950000  37.1650000  52.8560000  40.2270000  37.5450000
  54.8730000  44.1960000  36.6340000  54.3790000  42.3750000  38.5060000
  53.2730000  40.2890000  38.8900000  52.2420000  39.4030000  37.2120000
  54.0190000  41.3520000  39.3350000  54.9610000  43.2120000  38.8670000
  53.0140000  39.4880000  39.5630000  54.3180000  41.3840000  40.3680000
  51.6310000  41.1050000  44.6360000  50.8940000  40.0550000  44.0670000
  52.0300000  42.1470000  43.7470000  52.0090000  41.1670000  46.0430000
  50.5920000  40.0610000  42.6910000  50.5640000  39.2410000  44.6870000
  51.7690000  42.1220000  42.3490000  52.7670000  43.1890000  44.3100000
  52.7390000  42.2350000  46.5430000  51.5790000  40.1110000  46.9130000
  51.0510000  41.0530000  41.8860000  49.9840000  39.2630000  42.2650000
  52.1200000  42.8900000  41.6790000  53.0770000  43.2780000  45.6400000
  53.1250000  43.9850000  43.6560000  53.0920000  42.2480000  47.9280000
  51.9380000  40.0930000  48.2730000  50.9700000  39.3160000  46.5200000
  50.8400000  40.9990000  40.8370000  53.5870000  44.1640000  46.0060000
  52.6930000  41.2040000  48.7510000  53.8340000  43.3110000  48.4690000
  51.6480000  39.2740000  48.9270000  53.0970000  41.2300000  50.1730000
  54.1950000  43.3510000  49.7850000  54.1350000  44.1140000  47.8200000
  53.8540000  42.2950000  50.6800000  52.7480000  40.2270000  51.0590000
  54.7650000  44.1960000  50.1480000  54.2710000  42.3750000  52.0200000
  53.1640000  40.2890000  52.4040000  52.1330000  39.4030000  50.7270000
  53.9100000  41.3520000  52.8500000  54.8520000  43.2120000  52.3810000
  52.9050000  39.4880000  53.0770000  54.2090000  41.3840000  53.8830000
  51.5220000  10.3350000  58.1500000  50.7860000   9.2850000  57.5820000
  51.9210000  11.3770000  57.2610000  51.9000000  10.3970000  59.5570000
  50.4840000   9.2910000  56.2060000  50.4560000   8.4710000  58.2020000
  51.6600000  11.3520000  55.8640000  52.6590000  12.4190000  57.8250000
  52.6310000  11.4650000  60.0570000  51.4710000   9.3410000  60.4280000
  50.9420000  10.2830000  55.4000000  49.8760000   8.4930000  55.7800000
  52.0120000  12.1200000  55.1930000  52.9690000  12.5080000  59.1550000
  53.0170000  13.2150000  57.1710000  52.9830000  11.4780000  61.4430000
  51.8300000   9.3230000  61.7870000  50.8620000   8.5460000  60.0340000
  50.7320000  10.2290000  54.3520000  53.4790000  13.3940000  59.5210000
  52.5840000  10.4340000  62.2660000  53.7250000  12.5410000  61.9830000
  51.5400000   8.5040000  62.4410000  52.9890000  10.4600000  63.6870000
  54.0860000  12.5810000  63.3000000  54.0260000  13.3440000  61.3340000
  53.7460000  11.5250000  64.1940000  52.6390000   9.4570000  64.5740000
  54.6560000  13.4260000  63.6630000  54.1620000  11.6050000  65.5350000
  53.0560000   9.5190000  65.9190000  52.0250000   8.6330000  64.2410000
  53.8020000  10.5820000  66.3650000  54.7440000  12.4420000  65.8960000
  52.7970000   8.7180000  66.5920000  54.1010000  10.6140000  67.3970000
  51.5220000  16.4890000  58.1500000  50.7860000  15.4390000  57.5820000
  51.9210000  17.5310000  57.2610000  51.9000000  16.5510000  59.5570000
  50.4840000  15.4450000  56.2060000  50.4560000  14.6250000  58.2020000
  51.6600000  17.5060000  55.8640000  52.6590000  18.5730000  57.8250000
  52.6310000  17.6190000  60.0570000  51.4710000  15.4950000  60.4280000
  50.9420000  16.4370000  55.4000000  49.8760000  14.6470000  55.7800000
  52.0120000  18.2740000  55.1930000  52.9690000  18.6620000  59.1550000
  53.0170000  19.3690000  57.1710000  52.9830000  17.6320000  61.4430000
  51.8300000  15.4770000  61.7870000  50.8620000  14.7000000  60.0340000
  50.7320000  16.3830000  54.3520000  53.4790000  19.5480000  59.5210000
  52.5840000  16.5880000  62.2660000  53.7250000  18.6950000  61.9830000
  51.5400000  14.6580000  62.4410000  52.9890000  16.6140000  63.6870000
  54.0860000  18.7350000  63.3000000  54.0260000  19.4980000  61.3340000
  53.7460000  17.6790000  64.1940000  52.6390000  15.6110000  64.5740000
  54.6560000  19.5800000  63.6630000  54.1620000  17.7590000  65.5350000
  53.0560000  15.6730000  65.9190000  52.0250000  14.7870000  64.2410000
  53.8020000  16.7360000  66.3650000  54.7440000  18.5960000  65.8960000
  52.7970000  14.8720000  66.5920000  54.1010000  16.7680000  67.3970000
  51.5220000  22.6430000  58.1500000  50.7860000  21.5930000  57.5820000
  51.9210000  23.6850000  57.2610000  51.9000000  22.7050000  59.5570000
  50.4840000  21.5990000  56.2060000  50.4560000  20.7790000  58.2020000
  51.6600000  23.6600000  55.8640000  52.6590000  24.7270000  57.8250000
  52.6310000  23.7730000  60.0570000  51.4710000  21.6490000  60.4280000
  50.9420000  22.5910000  55.4000000  49.8760000  20.8010000  55.7800000
  52.0120000  24.4280000  55.1930000  52.9690000  24.8160000  59.1550000
  53.0170000  25.5230000  57.1710000  52.9830000  23.7860000  61.4430000
  51.8300000  21.6310000  61.7870000  50.8620000  20.8540000  60.0340000
  50.7320000  22.5370000  54.3520000  53.4790000  25.7020000  59.5210000
  52.5840000  22.7420000  62.2660000  53.7250000  24.8490000  61.9830000
  51.5400000  20.8120000  62.4410000  52.9890000  22.7680000  63.6870000
  54.0860000  24.8890000  63.3000000  54.0260000  25.6520000  61.3340000
  53.7460000  23.8330000  64.1940000  52.6390000  21.7650000  64.5740000
  54.6560000  25.7340000  63.6630000  54.1620000  23.9130000  65.5350000
  53.0560000  21.8270000  65.9190000  52.0250000  20.9410000  64.2410000
  53.8020000  22.8900000  66.3650000  54.7440000  24.7500000  65.8960000
  52.7970000  21.0260000  66.5920000  54.1010000  22.9220000  67.3970000
  51.5220000  28.7970000  58.1500000  50.7860000  27.7470000  57.5820000
  51.9210000  29.8390000  57.2610000  51.9000000  28.8590000  59.5570000
  50.4840000  27.7530000  56.2060000  50.4560000  26.9330000  58.2020000
  51.6600000  29.8140000  55.8640000  52.6590000  30.8810000  57.8250000
  52.6310000  29.9270000  60.0570000  51.4710000  27.8030000  60.4280000
  50.9420000  28.7450000  55.4000000  49.8760000  26.9550000  55.7800000
  52.0120000  30.5820000  55.1930000  52.9690000  30.9700000  59.1550000
  53.0170000  31.6770000  57.1710000  52.9830000  29.9400000  61.4430000
  51.8300000  27.7850000  61.7870000  50.8620000  27.0080000  60.0340000
  50.7320000  28.6910000  54.3520000  53.4790000  31.8560000  59.5210000
  52.5840000  28.8960000  62.2660000  53.7250000  31.0030000  61.9830000
  51.5400000  26.9660000  62.4410000  52.9890000  28.9220000  63.6870000
  54.0860000  31.0430000  63.3000000  54.0260000  31.8060000  61.3340000
  53.7460000  29.9870000  64.1940000  52.6390000  27.9190000  64.5740000
  54.6560000  31.8880000  63.6630000  54.1620000  30.0670000  65.5350000
  53.0560000  27.9810000  65.9190000  52.0250000  27.0950000  64.2410000
  53.8020000  29.0440000  66.3650000  54.7440000  30.9040000  65.8960000
  52.7970000  27.1800000  66.5920000  54.1010000  29.0760000  67.3970000
  51.5220000  34.9510000  58.1500000  50.7860000  33.9010000  57.5820000
  51.9210000  35.9930000  57.2610000  51.9000000  35.0130000  59.5570000
  50.4840000  33.9070000  56.2060000  50.4560000  33.0870000  58.2020000
  51.6600000  35.9680000  55.8640000  52.6590000  37.0350000  57.8250000
  52.6310000  36.0810000  60.0570000  51.4710000  33.9570000  60.4280000
  50.9420000  34.8990000  55.4000000  49.8760000  33.1090000  55.7800000
  52.0120000  36.7360000  55.1930000  52.9690000  37.1240000  59.1550000
  53.0170000  37.8310000  57.1710000  52.9830000  36.0940000  61.4430000
  51.8300000  33.9390000  61.7870000  50.8620000  33.1620000  60.0340000
  50.7320000  34.8450000  54.3520000  53.4790000  38.0100000  59.5210000
  52.5840000  35.0500000  62.2660000  53.7250000  37.1570000  61.9830000
  51.5400000  33.1200000  62.4410000  52.9890000  35.0760000  63.6870000
  54.0860000  37.1970000  63.3000000  54.0260000  37.9600000  61.3340000
  53.7460000  36.1410000  64.1940000  52.6390000  34.0730000  64.5740000
  54.6560000  38.0420000  63.6630000  54.1620000  36.2210000  65.5350000
  53.0560000  34.1350000  65.9190000  52.0250000  33.2490000  64.2410000
  53.8020000  35.1980000  66.3650000  54.7440000  37.0580000  65.8960000
  52.7970000  33.3340000  66.5920000  54.1010000  35.2300000  67.3970000
  51.5220000  41.1050000  58.1500000  50.7860000  40.0550000  57.5820000
  51.9210000  42.1470000  57.2610000  51.9000000  41.1670000  59.5570000
  50.4840000  40.0610000  56.2060000  50.4560000  39.2410000  58.2020000
  51.6600000  42.1220000  55.8640000  52.6590000  43.1890000  57.8250000
  52.6310000  42.2350000  60.0570000  51.4710000  40.1110000  60.4280000
  50.9420000  41.0530000  55.4000000  49.8760000  39.2630000  55.7800000
  52.0120000  42.8900000  55.1930000  52.9690000  43.2780000  59.1550000
  53.0170000  43.9850000  57.1710000  52.9830000  42.2480000  61.4430000
  51.8300000  40.0930000  61.7870000  50.8620000  39.3160000  60.0340000
  50.7320000  40.9990000  54.3520000  53.4790000  44.1640000  59.5210000
  52.5840000  41.2040000  62.2660000  53.7250000  43.3110000  61.9830000
  51.5400000  39.2740000  62.4410000  52.9890000  41.2300000  63.6870000
  54.0860000  43.3510000  63.3000000  54.0260000  44.1140000  61.3340000
  53.7460000  42.2950000  64.1940000  52.6390000  40.2270000  64.5740000
  54.6560000  44.1960000  63.6630000  54.1620000  42.3750000  65.5350000
  53.0560000  40.2890000  65.9190000  52.0250000  39.4030000  64.2410000
  53.8020000  41.3520000  66.3650000  54.7440000  43.2120000  65.8960000
  52.7970000  39.4880000  66.5920000  54.1010000  41.3840000  67.3970000
  58.1750000   7.2580000   9.4220000  58.9120000   6.2080000   9.9910000
  57.7760000   8.3000000  10.3120000  57.7970000   7.3200000   8.0150000
  59.2140000   6.2140000  11.3670000  59.2420000   5.3940000   9.3710000
  58.0370000   8.2750000  11.7090000  57.0390000   9.3420000   9.7480000
  57.0670000   8.3880000   7.5150000  58.2270000   6.2640000   7.1450000
  58.7550000   7.2060000  12.1730000  59.8220000   5.4160000  11.7930000
  57.6860000   9.0430000  12.3790000  56.7290000   9.4310000   8.4180000
  56.6810000  10.1380000  10.4020000  56.7140000   8.4010000   6.1300000
  57.8680000   6.2460000   5.7860000  58.8360000   5.4690000   7.5380000
  58.9660000   7.1520000  13.2210000  56.2190000  10.3170000   8.0520000
  57.1130000   7.3570000   5.3070000  55.9720000   9.4640000   5.5900000
  58.1580000   5.4270000   5.1310000  56.7080000   7.3830000   3.8850000
  55.6110000   9.5040000   4.2730000  55.6710000  10.2670000   6.2380000
  55.9520000   8.4480000   3.3790000  57.0580000   6.3800000   2.9990000
  55.0410000  10.3490000   3.9100000  55.5350000   8.5280000   2.0380000
  56.6420000   6.4420000   1.6540000  57.6730000   5.5560000   3.3310000
  55.8960000   7.5050000   1.2080000  54.9540000   9.3650000   1.6770000
  56.9010000   5.6410000   0.9810000  55.5970000   7.5370000   0.1760000
  58.0670000   7.2580000  22.9370000  58.8030000   6.2080000  23.5060000
  57.6680000   8.3000000  23.8260000  57.6890000   7.3200000  21.5300000
  59.1050000   6.2140000  24.8820000  59.1330000   5.3940000  22.8860000
  57.9290000   8.2750000  25.2240000  56.9300000   9.3420000  23.2630000
  56.9580000   8.3880000  21.0300000  58.1180000   6.2640000  20.6600000
  58.6470000   7.2060000  25.6870000  59.7130000   5.4160000  25.3070000
  57.5770000   9.0430000  25.8940000  56.6200000   9.4310000  21.9330000
  56.5720000  10.1380000  23.9170000  56.6060000   8.4010000  19.6450000
  57.7590000   6.2460000  19.3000000  58.7270000   5.4690000  21.0530000
  58.8570000   7.1520000  26.7360000  56.1100000  10.3170000  21.5670000
  57.0050000   7.3570000  18.8220000  55.8640000   9.4640000  19.1040000
  58.0490000   5.4270000  18.6460000  56.6000000   7.3830000  17.4000000
  55.5030000   9.5040000  17.7880000  55.5630000  10.2670000  19.7530000
  55.8430000   8.4480000  16.8930000  56.9500000   6.3800000  16.5130000
  54.9330000  10.3490000  17.4240000  55.4270000   8.5280000  15.5530000
  56.5330000   6.4420000  15.1690000  57.5640000   5.5560000  16.8460000
  55.7870000   7.5050000  14.7230000  54.8450000   9.3650000  15.1920000
  56.7920000   5.6410000  14.4960000  55.4880000   7.5370000  13.6900000
  57.9580000   7.2580000  36.4510000  58.6950000   6.2080000  37.0200000
  57.5590000   8.3000000  37.3410000  57.5800000   7.3200000  35.0450000
  58.9970000   6.2140000  38.3960000  59.0250000   5.3940000  36.4000000
  57.8200000   8.2750000  38.7380000  56.8220000   9.3420000  36.7770000
  56.8500000   8.3880000  34.5450000  58.0100000   6.2640000  34.1740000
  58.5380000   7.2060000  39.2020000  59.6050000   5.4160000  38.8220000
  57.4690000   9.0430000  39.4080000  56.5120000   9.4310000  35.4470000
  56.4640000  10.1380000  37.4310000  56.4970000   8.4010000  33.1590000
  57.6510000   6.2460000  32.8150000  58.6190000   5.4690000  34.5680000
  58.7490000   7.1520000  40.2500000  56.0020000  10.3170000  35.0810000
  56.8960000   7.3570000  32.3360000  55.7550000   9.4640000  32.6190000
  57.9410000   5.4270000  32.1610000  56.4910000   7.3830000  30.9150000
  55.3940000   9.5040000  31.3020000  55.4540000  10.2670000  33.2670000
  55.7350000   8.4480000  30.4080000  56.8410000   6.3800000  30.0280000
  54.8240000  10.3490000  30.9390000  55.3180000   8.5280000  29.0670000
  56.4250000   6.4420000  28.6830000  57.4560000   5.5560000  30.3600000
  55.6790000   7.5050000  28.2370000  54.7370000   9.3650000  28.7060000
  56.6840000   5.6410000  28.0100000  55.3800000   7.5370000  27.2050000
  57.8500000   7.2580000  49.9660000  58.5860000   6.2080000  50.5350000
  57.4510000   8.3000000  50.8550000  57.4720000   7.3200000  48.5590000
  58.8880000   6.2140000  51.9110000  58.9160000   5.3940000  49.9150000
  57.7120000   8.2750000  52.2530000  56.7130000   9.3420000  50.2920000
  56.7410000   8.3880000  48.0590000  57.9010000   6.2640000  47.6890000
  58.4300000   7.2060000  52.7160000  59.4960000   5.4160000  52.3370000
  57.3600000   9.0430000  52.9230000  56.4030000   9.4310000  48.9620000
  56.3550000  10.1380000  50.9460000  56.3890000   8.4010000  46.6740000
  57.5420000   6.2460000  46.3290000  58.5100000   5.4690000  48.0820000
  58.6400000   7.1520000  53.7650000  55.8930000  10.3170000  48.5960000
  56.7880000   7.3570000  45.8510000  55.6470000   9.4640000  46.1330000
  57.8320000   5.4270000  45.6750000  56.3830000   7.3830000  44.4290000
  55.2860000   9.5040000  44.8170000  55.3460000  10.2670000  46.7820000
  55.6260000   8.4480000  43.9220000  56.7330000   6.3800000  43.5430000
  54.7160000  10.3490000  44.4530000  55.2100000   8.5280000  42.5820000
  56.3160000   6.4420000  42.1980000  57.3470000   5.5560000  43.8750000
  55.5700000   7.5050000  41.7520000  54.6280000   9.3650000  42.2210000
  56.5750000   5.6410000  41.5250000  55.2710000   7.5370000  40.7190000
  57.7410000   7.2580000  63.4810000  58.4780000   6.2080000  64.0500000
  57.3420000   8.3000000  64.3700000  57.3630000   7.3200000  62.0740000
  58.7800000   6.2140000  65.4250000  58.8070000   5.3940000  63.4290000
  57.6030000   8.2750000  65.7670000  56.6050000   9.3420000  63.8060000
  56.6330000   8.3880000  61.5740000  57.7930000   6.2640000  61.2030000
  58.3210000   7.2060000  66.2310000  59.3880000   5.4160000  65.8510000
  57.2520000   9.0430000  66.4380000  56.2950000   9.4310000  62.4760000
  56.2470000  10.1380000  64.4600000  56.2800000   8.4010000  60.1880000
  57.4340000   6.2460000  59.8440000  58.4020000   5.4690000  61.5970000
  58.5320000   7.1520000  67.2800000  55.7850000  10.3170000  62.1100000
  56.6790000   7.3570000  59.3650000  55.5380000   9.4640000  59.6480000
  57.7240000   5.4270000  59.1900000  56.2740000   7.3830000  57.9440000
  55.1770000   9.5040000  58.3320000  55.2370000  10.2670000  60.2970000
  55.5180000   8.4480000  57.4370000  56.6240000   6.3800000  57.0570000
  54.6070000  10.3490000  57.9680000  55.1010000   8.5280000  56.0960000
  56.2080000   6.4420000  55.7120000  57.2390000   5.5560000  57.3900000
  55.4620000   7.5050000  55.2660000  54.5200000   9.3650000  55.7350000
  56.4670000   5.6410000  55.0390000  55.1630000   7.5370000  54.2340000
  58.1750000  13.4120000   9.4220000  58.9120000  12.3620000   9.9910000
  57.7760000  14.4540000  10.3120000  57.7970000  13.4740000   8.0150000
  59.2140000  12.3680000  11.3670000  59.2420000  11.5480000   9.3710000
  58.0370000  14.4290000  11.7090000  57.0390000  15.4960000   9.7480000
  57.0670000  14.5420000   7.5150000  58.2270000  12.4180000   7.1450000
  58.7550000  13.3600000  12.1730000  59.8220000  11.5700000  11.7930000
  57.6860000  15.1970000  12.3790000  56.7290000  15.5850000   8.4180000
  56.6810000  16.2920000  10.4020000  56.7140000  14.5550000   6.1300000
  57.8680000  12.4000000   5.7860000  58.8360000  11.6230000   7.5380000
  58.9660000  13.3060000  13.2210000  56.2190000  16.4710000   8.0520000
  57.1130000  13.5110000   5.3070000  55.9720000  15.6180000   5.5900000
  58.1580000  11.5810000   5.1310000  56.7080000  13.5370000   3.8850000
  55.6110000  15.6580000   4.2730000  55.6710000  16.4210000   6.2380000
  55.9520000  14.6020000   3.3790000  57.0580000  12.5340000   2.9990000
  55.0410000  16.5030000   3.9100000  55.5350000  14.6820000   2.0380000
  56.6420000  12.5960000   1.6540000  57.6730000  11.7100000   3.3310000
  55.8960000  13.6590000   1.2080000  54.9540000  15.5190000   1.6770000
  56.9010000  11.7950000   0.9810000  55.5970000  13.6910000   0.1760000
  58.0670000  13.4120000  22.9370000  58.8030000  12.3620000  23.5060000
  57.6680000  14.4540000  23.8260000  57.6890000  13.4740000  21.5300000
  59.1050000  12.3680000  24.8820000  59.1330000  11.5480000  22.8860000
  57.9290000  14.4290000  25.2240000  56.9300000  15.4960000  23.2630000
  56.9580000  14.5420000  21.0300000  58.1180000  12.4180000  20.6600000
  58.6470000  13.3600000  25.6870000  59.7130000  11.5700000  25.3070000
  57.5770000  15.1970000  25.8940000  56.6200000  15.5850000  21.9330000
  56.5720000  16.2920000  23.9170000  56.6060000  14.5550000  19.6450000
  57.7590000  12.4000000  19.3000000  58.7270000  11.6230000  21.0530000
  58.8570000  13.3060000  26.7360000  56.1100000  16.4710000  21.5670000
  57.0050000  13.5110000  18.8220000  55.8640000  15.6180000  19.1040000
  58.0490000  11.5810000  18.6460000  56.6000000  13.5370000  17.4000000
  55.5030000  15.6580000  17.7880000  55.5630000  16.4210000  19.7530000
  55.8430000  14.6020000  16.8930000  56.9500000  12.5340000  16.5130000
  54.9330000  16.5030000  17.4240000  55.4270000  14.6820000  15.5530000
  56.5330000  12.5960000  15.1690000  57.5640000  11.7100000  16.8460000
  55.7870000  13.6590000  14.7230000  54.8450000  15.5190000  15.1920000
  56.7920000  11.7950000  14.4960000  55.4880000  13.6910000  13.6900000
  57.9580000  13.4120000  36.4510000  58.6950000  12.3620000  37.0200000
  57.5590000  14.4540000  37.3410000  57.5800000  13.4740000  35.0450000
  58.9970000  12.3680000  38.3960000  59.0250000  11.5480000  36.4000000
  57.8200000  14.4290000  38.7380000  56.8220000  15.4960000  36.7770000
  56.8500000  14.5420000  34.5450000  58.0100000  12.4180000  34.1740000
  58.5380000  13.3600000  39.2020000  59.6050000  11.5700000  38.8220000
  57.4690000  15.1970000  39.4080000  56.5120000  15.5850000  35.4470000
  56.4640000  16.2920000  37.4310000  56.4970000  14.5550000  33.1590000
  57.6510000  12.4000000  32.8150000  58.6190000  11.6230000  34.5680000
  58.7490000  13.3060000  40.2500000  56.0020000  16.4710000  35.0810000
  56.8960000  13.5110000  32.3360000  55.7550000  15.6180000  32.6190000
  57.9410000  11.5810000  32.1610000  56.4910000  13.5370000  30.9150000
  55.3940000  15.6580000  31.3020000  55.4540000  16.4210000  33.2670000
  55.7350000  14.6020000  30.4080000  56.8410000  12.5340000  30.0280000
  54.8240000  16.5030000  30.9390000  55.3180000  14.6820000  29.0670000
  56.4250000  12.5960000  28.6830000  57.4560000  11.7100000  30.3600000
  55.6790000  13.6590000  28.2370000  54.7370000  15.5190000  28.7060000
  56.6840000  11.7950000  28.0100000  55.3800000  13.6910000  27.2050000
  57.8500000  13.4120000  49.9660000  58.5860000  12.3620000  50.5350000
  57.4510000  14.4540000  50.8550000  57.4720000  13.4740000  48.5590000
  58.8880000  12.3680000  51.9110000  58.9160000  11.5480000  49.9150000
  57.7120000  14.4290000  52.2530000  56.7130000  15.4960000  50.2920000
  56.7410000  14.5420000  48.0590000  57.9010000  12.4180000  47.6890000
  58.4300000  13.3600000  52.7160000  59.4960000  11.5700000  52.3370000
  57.3600000  15.1970000  52.9230000  56.4030000  15.5850000  48.9620000
  56.3550000  16.2920000  50.9460000  56.3890000  14.5550000  46.6740000
  57.5420000  12.4000000  46.3290000  58.5100000  11.6230000  48.0820000
  58.6400000  13.3060000  53.7650000  55.8930000  16.4710000  48.5960000
  56.7880000  13.5110000  45.8510000  55.6470000  15.6180000  46.1330000
  57.8320000  11.5810000  45.6750000  56.3830000  13.5370000  44.4290000
  55.2860000  15.6580000  44.8170000  55.3460000  16.4210000  46.7820000
  55.6260000  14.6020000  43.9220000  56.7330000  12.5340000  43.5430000
  54.7160000  16.5030000  44.4530000  55.2100000  14.6820000  42.5820000
  56.3160000  12.5960000  42.1980000  57.3470000  11.7100000  43.8750000
  55.5700000  13.6590000  41.7520000  54.6280000  15.5190000  42.2210000
  56.5750000  11.7950000  41.5250000  55.2710000  13.6910000  40.7190000
  57.7410000  13.4120000  63.4810000  58.4780000  12.3620000  64.0500000
  57.3420000  14.4540000  64.3700000  57.3630000  13.4740000  62.0740000
  58.7800000  12.3680000  65.4250000  58.8070000  11.5480000  63.4290000
  57.6030000  14.4290000  65.7670000  56.6050000  15.4960000  63.8060000
  56.6330000  14.5420000  61.5740000  57.7930000  12.4180000  61.2030000
  58.3210000  13.3600000  66.2310000  59.3880000  11.5700000  65.8510000
  57.2520000  15.1970000  66.4380000  56.2950000  15.5850000  62.4760000
  56.2470000  16.2920000  64.4600000  56.2800000  14.5550000  60.1880000
  57.4340000  12.4000000  59.8440000  58.4020000  11.6230000  61.5970000
  58.5320000  13.3060000  67.2800000  55.7850000  16.4710000  62.1100000
  56.6790000  13.5110000  59.3650000  55.5380000  15.6180000  59.6480000
  57.7240000  11.5810000  59.1900000  56.2740000  13.5370000  57.9440000
  55.1770000  15.6580000  58.3320000  55.2370000  16.4210000  60.2970000
  55.5180000  14.6020000  57.4370000  56.6240000  12.5340000  57.0570000
  54.6070000  16.5030000  57.9680000  55.1010000  14.6820000  56.0960000
  56.2080000  12.5960000  55.7120000  57.2390000  11.7100000  57.3900000
  55.4620000  13.6590000  55.2660000  54.5200000  15.5190000  55.7350000
  56.4670000  11.7950000  55.0390000  55.1630000  13.6910000  54.2340000
  58.1750000  19.5660000   9.4220000  58.9120000  18.5160000   9.9910000
  57.7760000  20.6080000  10.3120000  57.7970000  19.6280000   8.0150000
  59.2140000  18.5220000  11.3670000  59.2420000  17.7020000   9.3710000
  58.0370000  20.5830000  11.7090000  57.0390000  21.6500000   9.7480000
  57.0670000  20.6960000   7.5150000  58.2270000  18.5720000   7.1450000
  58.7550000  19.5140000  12.1730000  59.8220000  17.7240000  11.7930000
  57.6860000  21.3510000  12.3790000  56.7290000  21.7390000   8.4180000
  56.6810000  22.4460000  10.4020000  56.7140000  20.7090000   6.1300000
  57.8680000  18.5540000   5.7860000  58.8360000  17.7770000   7.5380000
  58.9660000  19.4600000  13.2210000  56.2190000  22.6250000   8.0520000
  57.1130000  19.6650000   5.3070000  55.9720000  21.7720000   5.5900000
  58.1580000  17.7350000   5.1310000  56.7080000  19.6910000   3.8850000
  55.6110000  21.8120000   4.2730000  55.6710000  22.5750000   6.2380000
  55.9520000  20.7560000   3.3790000  57.0580000  18.6880000   2.9990000
  55.0410000  22.6570000   3.9100000  55.5350000  20.8360000   2.0380000
  56.6420000  18.7500000   1.6540000  57.6730000  17.8640000   3.3310000
  55.8960000  19.8130000   1.2080000  54.9540000  21.6730000   1.6770000
  56.9010000  17.9490000   0.9810000  55.5970000  19.8450000   0.1760000
  58.0670000  19.5660000  22.9370000  58.8030000  18.5160000  23.5060000
  57.6680000  20.6080000  23.8260000  57.6890000  19.6280000  21.5300000
  59.1050000  18.5220000  24.8820000  59.1330000  17.7020000  22.8860000
  57.9290000  20.5830000  25.2240000  56.9300000  21.6500000  23.2630000
  56.9580000  20.6960000  21.0300000  58.1180000  18.5720000  20.6600000
  58.6470000  19.5140000  25.6870000  59.7130000  17.7240000  25.3070000
  57.5770000  21.3510000  25.8940000  56.6200000  21.7390000  21.9330000
  56.5720000  22.4460000  23.9170000  56.6060000  20.7090000  19.6450000
  57.7590000  18.5540000  19.3000000  58.7270000  17.7770000  21.0530000
  58.8570000  19.4600000  26.7360000  56.1100000  22.6250000  21.5670000
  57.0050000  19.6650000  18.8220000  55.8640000  21.7720000  19.1040000
  58.0490000  17.7350000  18.6460000  56.6000000  19.6910000  17.4000000
  55.5030000  21.8120000  17.7880000  55.5630000  22.5750000  19.7530000
  55.8430000  20.7560000  16.8930000  56.9500000  18.6880000  16.5130000
  54.9330000  22.6570000  17.4240000  55.4270000  20.8360000  15.5530000
  56.5330000  18.7500000  15.1690000  57.5640000  17.8640000  16.8460000
  55.7870000  19.8130000  14.7230000  54.8450000  21.6730000  15.1920000
  56.7920000  17.9490000  14.4960000  55.4880000  19.8450000  13.6900000
  57.9580000  19.5660000  36.4510000  58.6950000  18.5160000  37.0200000
  57.5590000  20.6080000  37.3410000  57.5800000  19.6280000  35.0450000
  58.9970000  18.5220000  38.3960000  59.0250000  17.7020000  36.4000000
  57.8200000  20.5830000  38.7380000  56.8220000  21.6500000  36.7770000
  56.8500000  20.6960000  34.5450000  58.0100000  18.5720000  34.1740000
  58.5380000  19.5140000  39.2020000  59.6050000  17.7240000  38.8220000
  57.4690000  21.3510000  39.4080000  56.5120000  21.7390000  35.4470000
  56.4640000  22.4460000  37.4310000  56.4970000  20.7090000  33.1590000
  57.6510000  18.5540000  32.8150000  58.6190000  17.7770000  34.5680000
  58.7490000  19.4600000  40.2500000  56.0020000  22.6250000  35.0810000
  56.8960000  19.6650000  32.3360000  55.7550000  21.7720000  32.6190000
  57.9410000  17.7350000  32.1610000  56.4910000  19.6910000  30.9150000
  55.3940000  21.8120000  31.3020000  55.4540000  22.5750000  33.2670000
  55.7350000  20.7560000  30.4080000  56.8410000  18.6880000  30.0280000
  54.8240000  22.6570000  30.9390000  55.3180000  20.8360000  29.0670000
  56.4250000  18.7500000  28.6830000  57.4560000  17.8640000  30.3600000
  55.6790000  19.8130000  28.2370000  54.7370000  21.6730000  28.7060000
  56.6840000  17.9490000  28.0100000  55.3800000  19.8450000  27.2050000
  57.8500000  19.5660000  49.9660000  58.5860000  18.5160000  50.5350000
  57.4510000  20.6080000  50.8550000  57.4720000  19.6280000  48.5590000
  58.8880000  18.5220000  51.9110000  58.9160000  17.7020000  49.9150000
  57.7120000  20.5830000  52.2530000  56.7130000  21.6500000  50.2920000
  56.7410000  20.6960000  48.0590000  57.9010000  18.5720000  47.6890000
  58.4300000  19.5140000  52.7160000  59.4960000  17.7240000  52.3370000
  57.3600000  21.3510000  52.9230000  56.4030000  21.7390000  48.9620000
  56.3550000  22.4460000  50.9460000  56.3890000  20.7090000  46.6740000
  57.5420000  18.5540000  46.3290000  58.5100000  17.7770000  48.0820000
  58.6400000  19.4600000  53.7650000  55.8930000  22.6250000  48.5960000
  56.7880000  19.6650000  45.8510000  55.6470000  21.7720000  46.1330000
  57.8320000  17.7350000  45.6750000  56.3830000  19.6910000  44.4290000
  55.2860000  21.8120000  44.8170000  55.3460000  22.5750000  46.7820000
  55.6260000  20.7560000  43.9220000  56.7330000  18.6880000  43.5430000
  54.7160000  22.6570000  44.4530000  55.2100000  20.8360000  42.5820000
  56.3160000  18.7500000  42.1980000  57.3470000  17.8640000  43.8750000
  55.5700000  19.8130000  41.7520000  54.6280000  21.6730000  42.2210000
  56.5750000  17.9490000  41.5250000  55.2710000  19.8450000  40.7190000
  57.7410000  19.5660000  63.4810000  58.4780000  18.5160000  64.0500000
  57.3420000  20.6080000  64.3700000  57.3630000  19.6280000  62.0740000
  58.7800000  18.5220000  65.4250000  58.8070000  17.7020000  63.4290000
  57.6030000  20.5830000  65.7670000  56.6050000  21.6500000  63.8060000
  56.6330000  20.6960000  61.5740000  57.7930000  18.5720000  61.2030000
  58.3210000  19.5140000  66.2310000  59.3880000  17.7240000  65.8510000
  57.2520000  21.3510000  66.4380000  56.2950000  21.7390000  62.4760000
  56.2470000  22.4460000  64.4600000  56.2800000  20.7090000  60.1880000
  57.4340000  18.5540000  59.8440000  58.4020000  17.7770000  61.5970000
  58.5320000  19.4600000  67.2800000  55.7850000  22.6250000  62.1100000
  56.6790000  19.6650000  59.3650000  55.5380000  21.7720000  59.6480000
  57.7240000  17.7350000  59.1900000  56.2740000  19.6910000  57.9440000
  55.1770000  21.8120000  58.3320000  55.2370000  22.5750000  60.2970000
  55.5180000  20.7560000  57.4370000  56.6240000  18.6880000  57.0570000
  54.6070000  22.6570000  57.9680000  55.1010000  20.8360000  56.0960000
  56.2080000  18.7500000  55.7120000  57.2390000  17.8640000  57.3900000
  55.4620000  19.8130000  55.2660000  54.5200000  21.6730000  55.7350000
  56.4670000  17.9490000  55.0390000  55.1630000  19.8450000  54.2340000
  58.1750000  25.7200000   9.4220000  58.9120000  24.6700000   9.9910000
  57.7760000  26.7620000  10.3120000  57.7970000  25.7820000   8.0150000
  59.2140000  24.6760000  11.3670000  59.2420000  23.8560000   9.3710000
  58.0370000  26.7370000  11.7090000  57.0390000  27.8040000   9.7480000
  57.0670000  26.8500000   7.5150000  58.2270000  24.7260000   7.1450000
  58.7550000  25.6680000  12.1730000  59.8220000  23.8780000  11.7930000
  57.6860000  27.5050000  12.3790000  56.7290000  27.8930000   8.4180000
  56.6810000  28.6000000  10.4020000  56.7140000  26.8630000   6.1300000
  57.8680000  24.7080000   5.7860000  58.8360000  23.9310000   7.5380000
  58.9660000  25.6140000  13.2210000  56.2190000  28.7790000   8.0520000
  57.1130000  25.8190000   5.3070000  55.9720000  27.9260000   5.5900000
  58.1580000  23.8890000   5.1310000  56.7080000  25.8450000   3.8850000
  55.6110000  27.9660000   4.2730000  55.6710000  28.7290000   6.2380000
  55.9520000  26.9100000   3.3790000  57.0580000  24.8420000   2.9990000
  55.0410000  28.8110000   3.9100000  55.5350000  26.9900000   2.0380000
  56.6420000  24.9040000   1.6540000  57.6730000  24.0180000   3.3310000
  55.8960000  25.9670000   1.2080000  54.9540000  27.8270000   1.6770000
  56.9010000  24.1030000   0.9810000  55.5970000  25.9990000   0.1760000
  58.0670000  25.7200000  22.9370000  58.8030000  24.6700000  23.5060000
  57.6680000  26.7620000  23.8260000  57.6890000  25.7820000  21.5300000
  59.1050000  24.6760000  24.8820000  59.1330000  23.8560000  22.8860000
  57.9290000  26.7370000  25.2240000  56.9300000  27.8040000  23.2630000
  56.9580000  26.8500000  21.0300000  58.1180000  24.7260000  20.6600000
  58.6470000  25.6680000  25.6870000  59.7130000  23.8780000  25.3070000
  57.5770000  27.5050000  25.8940000  56.6200000  27.8930000  21.9330000
  56.5720000  28.6000000  23.9170000  56.6060000  26.8630000  19.6450000
  57.7590000  24.7080000  19.3000000  58.7270000  23.9310000  21.0530000
  58.8570000  25.6140000  26.7360000  56.1100000  28.7790000  21.5670000
  57.0050000  25.8190000  18.8220000  55.8640000  27.9260000  19.1040000
  58.0490000  23.8890000  18.6460000  56.6000000  25.8450000  17.4000000
  55.5030000  27.9660000  17.7880000  55.5630000  28.7290000  19.7530000
  55.8430000  26.9100000  16.8930000  56.9500000  24.8420000  16.5130000
  54.9330000  28.8110000  17.4240000  55.4270000  26.9900000  15.5530000
  56.5330000  24.9040000  15.1690000  57.5640000  24.0180000  16.8460000
  55.7870000  25.9670000  14.7230000  54.8450000  27.8270000  15.1920000
  56.7920000  24.1030000  14.4960000  55.4880000  25.9990000  13.6900000
  57.9580000  25.7200000  36.4510000  58.6950000  24.6700000  37.0200000
  57.5590000  26.7620000  37.3410000  57.5800000  25.7820000  35.0450000
  58.9970000  24.6760000  38.3960000  59.0250000  23.8560000  36.4000000
  57.8200000  26.7370000  38.7380000  56.8220000  27.8040000  36.7770000
  56.8500000  26.8500000  34.5450000  58.0100000  24.7260000  34.1740000
  58.5380000  25.6680000  39.2020000  59.6050000  23.8780000  38.8220000
  57.4690000  27.5050000  39.4080000  56.5120000  27.8930000  35.4470000
  56.4640000  28.6000000  37.4310000  56.4970000  26.8630000  33.1590000
  57.6510000  24.7080000  32.8150000  58.6190000  23.9310000  34.5680000
  58.7490000  25.6140000  40.2500000  56.0020000  28.7790000  35.0810000
  56.8960000  25.8190000  32.3360000  55.7550000  27.9260000  32.6190000
  57.9410000  23.8890000  32.1610000  56.4910000  25.8450000  30.9150000
  55.3940000  27.9660000  31.3020000  55.4540000  28.7290000  33.2670000
  55.7350000  26.9100000  30.4080000  56.8410000  24.8420000  30.0280000
  54.8240000  28.8110000  30.9390000  55.3180000  26.9900000  29.0670000
  56.4250000  24.9040000  28.6830000  57.4560000  24.0180000  30.3600000
  55.6790000  25.9670000  28.2370000  54.7370000  27.8270000  28.7060000
  56.6840000  24.1030000  28.0100000  55.3800000  25.9990000  27.2050000
  57.8500000  25.7200000  49.9660000  58.5860000  24.6700000  50.5350000
  57.4510000  26.7620000  50.8550000  57.4720000  25.7820000  48.5590000
  58.8880000  24.6760000  51.9110000  58.9160000  23.8560000  49.9150000
  57.7120000  26.7370000  52.2530000  56.7130000  27.8040000  50.2920000
  56.7410000  26.8500000  48.0590000  57.9010000  24.7260000  47.6890000
  58.4300000  25.6680000  52.7160000  59.4960000  23.8780000  52.3370000
  57.3600000  27.5050000  52.9230000  56.4030000  27.8930000  48.9620000
  56.3550000  28.6000000  50.9460000  56.3890000  26.8630000  46.6740000
  57.5420000  24.7080000  46.3290000  58.5100000  23.9310000  48.0820000
  58.6400000  25.6140000  53.7650000  55.8930000  28.7790000  48.5960000
  56.7880000  25.8190000  45.8510000  55.6470000  27.9260000  46.1330000
  57.8320000  23.8890000  45.6750000  56.3830000  25.8450000  44.4290000
  55.2860000  27.9660000  44.8170000  55.3460000  28.7290000  46.7820000
  55.6260000  26.9100000  43.9220000  56.7330000  24.8420000  43.5430000
  54.7160000  28.8110000  44.4530000  55.2100000  26.9900000  42.5820000
  56.3160000  24.9040000  42.1980000  57.3470000  24.0180000  43.8750000
  55.5700000  25.9670000  41.7520000  54.6280000  27.8270000  42.2210000
  56.5750000  24.1030000  41.5250000  55.2710000  25.9990000  40.7190000
  57.7410000  25.7200000  63.4810000  58.4780000  24.6700000  64.0500000
  57.3420000  26.7620000  64.3700000  57.3630000  25.7820000  62.0740000
  58.7800000  24.6760000  65.4250000  58.8070000  23.8560000  63.4290000
  57.6030000  26.7370000  65.7670000  56.6050000  27.8040000  63.8060000
  56.6330000  26.8500000  61.5740000  57.7930000  24.7260000  61.2030000
  58.3210000  25.6680000  66.2310000  59.3880000  23.8780000  65.8510000
  57.2520000  27.5050000  66.4380000  56.2950000  27.8930000  62.4760000
  56.2470000  28.6000000  64.4600000  56.2800000  26.8630000  60.1880000
  57.4340000  24.7080000  59.8440000  58.4020000  23.9310000  61.5970000
  58.5320000  25.6140000  67.2800000  55.7850000  28.7790000  62.1100000
  56.6790000  25.8190000  59.3650000  55.5380000  27.9260000  59.6480000
  57.7240000  23.8890000  59.1900000  56.2740000  25.8450000  57.9440000
  55.1770000  27.9660000  58.3320000  55.2370000  28.7290000  60.2970000
  55.5180000  26.9100000  57.4370000  56.6240000  24.8420000  57.0570000
  54.6070000  28.8110000  57.9680000  55.1010000  26.9900000  56.0960000
  56.2080000  24.9040000  55.7120000  57.2390000  24.0180000  57.3900000
  55.4620000  25.9670000  55.2660000  54.5200000  27.8270000  55.7350000
  56.4670000  24.1030000  55.0390000  55.1630000  25.9990000  54.2340000
  58.1750000  31.8740000   9.4220000  58.9120000  30.8240000   9.9910000
  57.7760000  32.9160000  10.3120000  57.7970000  31.9360000   8.0150000
  59.2140000  30.8300000  11.3670000  59.2420000  30.0100000   9.3710000
  58.0370000  32.8910000  11.7090000  57.0390000  33.9580000   9.7480000
  57.0670000  33.0040000   7.5150000  58.2270000  30.8800000   7.1450000
  58.7550000  31.8220000  12.1730000  59.8220000  30.0320000  11.7930000
  57.6860000  33.6590000  12.3790000  56.7290000  34.0470000   8.4180000
  56.6810000  34.7540000  10.4020000  56.7140000  33.0170000   6.1300000
  57.8680000  30.8620000   5.7860000  58.8360000  30.0850000   7.5380000
  58.9660000  31.7680000  13.2210000  56.2190000  34.9330000   8.0520000
  57.1130000  31.9730000   5.3070000  55.9720000  34.0800000   5.5900000
  58.1580000  30.0430000   5.1310000  56.7080000  31.9990000   3.8850000
  55.6110000  34.1200000   4.2730000  55.6710000  34.8830000   6.2380000
  55.9520000  33.0640000   3.3790000  57.0580000  30.9960000   2.9990000
  55.0410000  34.9650000   3.9100000  55.5350000  33.1440000   2.0380000
  56.6420000  31.0580000   1.6540000  57.6730000  30.1720000   3.3310000
  55.8960000  32.1210000   1.2080000  54.9540000  33.9810000   1.6770000
  56.9010000  30.2570000   0.9810000  55.5970000  32.1530000   0.1760000
  58.0670000  31.8740000  22.9370000  58.8030000  30.8240000  23.5060000
  57.6680000  32.9160000  23.8260000  57.6890000  31.9360000  21.5300000
  59.1050000  30.8300000  24.8820000  59.1330000  30.0100000  22.8860000
  57.9290000  32.8910000  25.2240000  56.9300000  33.9580000  23.2630000
  56.9580000  33.0040000  21.0300000  58.1180000  30.8800000  20.6600000
  58.6470000  31.8220000  25.6870000  59.7130000  30.0320000  25.3070000
  57.5770000  33.6590000  25.8940000  56.6200000  34.0470000  21.9330000
  56.5720000  34.7540000  23.9170000  56.6060000  33.0170000  19.6450000
  57.7590000  30.8620000  19.3000000  58.7270000  30.0850000  21.0530000
  58.8570000  31.7680000  26.7360000  56.1100000  34.9330000  21.5670000
  57.0050000  31.9730000  18.8220000  55.8640000  34.0800000  19.1040000
  58.0490000  30.0430000  18.6460000  56.6000000  31.9990000  17.4000000
  55.5030000  34.1200000  17.7880000  55.5630000  34.8830000  19.7530000
  55.8430000  33.0640000  16.8930000  56.9500000  30.9960000  16.5130000
  54.9330000  34.9650000  17.4240000  55.4270000  33.1440000  15.5530000
  56.5330000  31.0580000  15.1690000  57.5640000  30.1720000  16.8460000
  55.7870000  32.1210000  14.7230000  54.8450000  33.9810000  15.1920000
  56.7920000  30.2570000  14.4960000  55.4880000  32.1530000  13.6900000
  57.9580000  31.8740000  36.4510000  58.6950000  30.8240000  37.0200000
  57.5590000  32.9160000  37.3410000  57.5800000  31.9360000  35.0450000
  58.9970000  30.8300000  38.3960000  59.0250000  30.0100000  36.4000000
  57.8200000  32.8910000  38.7380000  56.8220000  33.9580000  36.7770000
  56.8500000  33.0040000  34.5450000  58.0100000  30.8800000  34.1740000
  58.5380000  31.8220000  39.2020000  59.6050000  30.0320000  38.8220000
  57.4690000  33.6590000  39.4080000  56.5120000  34.0470000  35.4470000
  56.4640000  34.7540000  37.4310000  56.4970000  33.0170000  33.1590000
  57.6510000  30.8620000  32.8150000  58.6190000  30.0850000  34.5680000
  58.7490000  31.7680000  40.2500000  56.0020000  34.9330000  35.0810000
  56.8960000  31.9730000  32.3360000  55.7550000  34.0800000  32.6190000
  57.9410000  30.0430000  32.1610000  56.4910000  31.9990000  30.9150000
  55.3940000  34.1200000  31.3020000  55.4540000  34.8830000  33.2670000
  55.7350000  33.0640000  30.4080000  56.8410000  30.9960000  30.0280000
  54.8240000  34.9650000  30.9390000  55.3180000  33.1440000  29.0670000
  56.4250000  31.0580000  28.6830000  57.4560000  30.1720000  30.3600000
  55.6790000  32.1210000  28.2370000  54.7370000  33.9810000  28.7060000
  56.6840000  30.2570000  28.0100000  55.3800000  32.1530000  27.2050000
  57.8500000  31.8740000  49.9660000  58.5860000  30.8240000  50.5350000
  57.4510000  32.9160000  50.8550000  57.4720000  31.9360000  48.5590000
  58.8880000  30.8300000  51.9110000  58.9160000  30.0100000  49.9150000
  57.7120000  32.8910000  52.2530000  56.7130000  33.9580000  50.2920000
  56.7410000  33.0040000  48.0590000  57.9010000  30.8800000  47.6890000
  58.4300000  31.8220000  52.7160000  59.4960000  30.0320000  52.3370000
  57.3600000  33.6590000  52.9230000  56.4030000  34.0470000  48.9620000
  56.3550000  34.7540000  50.9460000  56.3890000  33.0170000  46.6740000
  57.5420000  30.8620000  46.3290000  58.5100000  30.0850000  48.0820000
  58.6400000  31.7680000  53.7650000  55.8930000  34.9330000  48.5960000
  56.7880000  31.9730000  45.8510000  55.6470000  34.0800000  46.1330000
  57.8320000  30.0430000  45.6750000  56.3830000  31.9990000  44.4290000
  55.2860000  34.1200000  44.8170000  55.3460000  34.8830000  46.7820000
  55.6260000  33.0640000  43.9220000  56.7330000  30.9960000  43.5430000
  54.7160000  34.9650000  44.4530000  55.2100000  33.1440000  42.5820000
  56.3160000  31.0580000  42.1980000  57.3470000  30.1720000  43.8750000
  55.5700000  32.1210000  41.7520000  54.6280000  33.9810000  42.2210000
  56.5750000  30.2570000  41.5250000  55.2710000  32.1530000  40.7190000
  57.7410000  31.8740000  63.4810000  58.4780000  30.8240000  64.0500000
  57.3420000  32.9160000  64.3700000  57.3630000  31.9360000  62.0740000
  58.7800000  30.8300000  65.4250000  58.8070000  30.0100000  63.4290000
  57.6030000  32.8910000  65.7670000  56.6050000  33.9580000  63.8060000
  56.6330000  33.0040000  61.5740000  57.7930000  30.8800000  61.2030000
  58.3210000  31.8220000  66.2310000  59.3880000  30.0320000  65.8510000
  57.2520000  33.6590000  66.4380000  56.2950000  34.0470000  62.4760000
  56.2470000  34.7540000  64.4600000  56.2800000  33.0170000  60.1880000
  57.4340000  30.8620000  59.8440000  58.4020000  30.0850000  61.5970000
  58.5320000  31.7680000  67.2800000  55.7850000  34.9330000  62.1100000
  56.6790000  31.9730000  59.3650000  55.5380000  34.0800000  59.6480000
  57.7240000  30.0430000  59.1900000  56.2740000  31.9990000  57.9440000
  55.1770000  34.1200000  58.3320000  55.2370000  34.8830000  60.2970000
  55.5180000  33.0640000  57.4370000  56.6240000  30.9960000  57.0570000
  54.6070000  34.9650000  57.9680000  55.1010000  33.1440000  56.0960000
  56.2080000  31.0580000  55.7120000  57.2390000  30.1720000  57.3900000
  55.4620000  32.1210000  55.2660000  54.5200000  33.9810000  55.7350000
  56.4670000  30.2570000  55.0390000  55.1630000  32.1530000  54.2340000
  58.1750000   1.1040000   9.4220000  58.9120000   0.0540000   9.9910000
  57.7760000   2.1460000  10.3120000  57.7970000   1.1660000   8.0150000
  59.2140000   0.0600000  11.3670000  59.2420000  -0.7600000   9.3710000
  58.0370000   2.1210000  11.7090000  57.0390000   3.1880000   9.7480000
  57.0670000   2.2340000   7.5150000  58.2270000   0.1100000   7.1450000
  58.7550000   1.0520000  12.1730000  59.8220000  -0.7380000  11.7930000
  57.6860000   2.8890000  12.3790000  56.7290000   3.2770000   8.4180000
  56.6810000   3.9840000  10.4020000  56.7140000   2.2470000   6.1300000
  57.8680000   0.0920000   5.7860000  58.8360000  -0.6850000   7.5380000
  58.9660000   0.9980000  13.2210000  56.2190000   4.1630000   8.0520000
  57.1130000   1.2030000   5.3070000  55.9720000   3.3100000   5.5900000
  58.1580000  -0.7270000   5.1310000  56.7080000   1.2290000   3.8850000
  55.6110000   3.3500000   4.2730000  55.6710000   4.1130000   6.2380000
  55.9520000   2.2940000   3.3790000  57.0580000   0.2260000   2.9990000
  55.0410000   4.1950000   3.9100000  55.5350000   2.3740000   2.0380000
  56.6420000   0.2880000   1.6540000  57.6730000  -0.5980000   3.3310000
  55.8960000   1.3510000   1.2080000  54.9540000   3.2110000   1.6770000
  56.9010000  -0.5130000   0.9810000  55.5970000   1.3830000   0.1760000
  58.0670000   1.1040000  22.9370000  58.8030000   0.0540000  23.5060000
  57.6680000   2.1460000  23.8260000  57.6890000   1.1660000  21.5300000
  59.1050000   0.0600000  24.8820000  59.1330000  -0.7600000  22.8860000
  57.9290000   2.1210000  25.2240000  56.9300000   3.1880000  23.2630000
  56.9580000   2.2340000  21.0300000  58.1180000   0.1100000  20.6600000
  58.6470000   1.0520000  25.6870000  59.7130000  -0.7380000  25.3070000
  57.5770000   2.8890000  25.8940000  56.6200000   3.2770000  21.9330000
  56.5720000   3.9840000  23.9170000  56.6060000   2.2470000  19.6450000
  57.7590000   0.0920000  19.3000000  58.7270000  -0.6850000  21.0530000
  58.8570000   0.9980000  26.7360000  56.1100000   4.1630000  21.5670000
  57.0050000   1.2030000  18.8220000  55.8640000   3.3100000  19.1040000
  58.0490000  -0.7270000  18.6460000  56.6000000   1.2290000  17.4000000
  55.5030000   3.3500000  17.7880000  55.5630000   4.1130000  19.7530000
  55.8430000   2.2940000  16.8930000  56.9500000   0.2260000  16.5130000
  54.9330000   4.1950000  17.4240000  55.4270000   2.3740000  15.5530000
  56.5330000   0.2880000  15.1690000  57.5640000  -0.5980000  16.8460000
  55.7870000   1.3510000  14.7230000  54.8450000   3.2110000  15.1920000
  56.7920000  -0.5130000  14.4960000  55.4880000   1.3830000  13.6900000
  57.9580000   1.1040000  36.4510000  58.6950000   0.0540000  37.0200000
  57.5590000   2.1460000  37.3410000  57.5800000   1.1660000  35.0450000
  58.9970000   0.0600000  38.3960000  59.0250000  -0.7600000  36.4000000
  57.8200000   2.1210000  38.7380000  56.8220000   3.1880000  36.7770000
  56.8500000   2.2340000  34.5450000  58.0100000   0.1100000  34.1740000
  58.5380000   1.0520000  39.2020000  59.6050000  -0.7380000  38.8220000
  57.4690000   2.8890000  39.4080000  56.5120000   3.2770000  35.4470000
  56.4640000   3.9840000  37.4310000  56.4970000   2.2470000  33.1590000
  57.6510000   0.0920000  32.8150000  58.6190000  -0.6850000  34.5680000
  58.7490000   0.9980000  40.2500000  56.0020000   4.1630000  35.0810000
  56.8960000   1.2030000  32.3360000  55.7550000   3.3100000  32.6190000
  57.9410000  -0.7270000  32.1610000  56.4910000   1.2290000  30.9150000
  55.3940000   3.3500000  31.3020000  55.4540000   4.1130000  33.2670000
  55.7350000   2.2940000  30.4080000  56.8410000   0.2260000  30.0280000
  54.8240000   4.1950000  30.9390000  55.3180000   2.3740000  29.0670000
  56.4250000   0.2880000  28.6830000  57.4560000  -0.5980000  30.3600000
  55.6790000   1.3510000  28.2370000  54.7370000   3.2110000  28.7060000
  56.6840000  -0.5130000  28.0100000  55.3800000   1.3830000  27.2050000
  57.8500000   1.1040000  49.9660000  58.5860000   0.0540000  50.5350000
  57.4510000   2.1460000  50.8550000  57.4720000   1.1660000  48.5590000
  58.8880000   0.0600000  51.9110000  58.9160000  -0.7600000  49.9150000
  57.7120000   2.1210000  52.2530000  56.7130000   3.1880000  50.2920000
  56.7410000   2.2340000  48.0590000  57.9010000   0.1100000  47.6890000
  58.4300000   1.0520000  52.7160000  59.4960000  -0.7380000  52.3370000
  57.3600000   2.8890000  52.9230000  56.4030000   3.2770000  48.9620000
  56.3550000   3.9840000  50.9460000  56.3890000   2.2470000  46.6740000
  57.5420000   0.0920000  46.3290000  58.5100000  -0.6850000  48.0820000
  58.6400000   0.9980000  53.7650000  55.8930000   4.1630000  48.5960000
  56.7880000   1.2030000  45.8510000  55.6470000   3.3100000  46.1330000
  57.8320000  -0.7270000  45.6750000  56.3830000   1.2290000  44.4290000
  55.2860000   3.3500000  44.8170000  55.3460000   4.1130000  46.7820000
  55.6260000   2.2940000  43.9220000  56.7330000   0.2260000  43.5430000
  54.7160000   4.1950000  44.4530000  55.2100000   2.3740000  42.5820000
  56.3160000   0.2880000  42.1980000  57.3470000  -0.5980000  43.8750000
  55.5700000   1.3510000  41.7520000  54.6280000   3.2110000  42.2210000
  56.5750000  -0.5130000  41.5250000  55.2710000   1.3830000  40.7190000
  57.7410000   1.1040000  63.4810000  58.4780000   0.0540000  64.0500000
  57.3420000   2.1460000  64.3700000  57.3630000   1.1660000  62.0740000
  58.7800000   0.0600000  65.4250000  58.8070000  -0.7600000  63.4290000
  57.6030000   2.1210000  65.7670000  56.6050000   3.1880000  63.8060000
  56.6330000   2.2340000  61.5740000  57.7930000   0.1100000  61.2030000
  58.3210000   1.0520000  66.2310000  59.3880000  -0.7380000  65.8510000
  57.2520000   2.8890000  66.4380000  56.2950000   3.2770000  62.4760000
  56.2470000   3.9840000  64.4600000  56.2800000   2.2470000  60.1880000
  57.4340000   0.0920000  59.8440000  58.4020000  -0.6850000  61.5970000
  58.5320000   0.9980000  67.2800000  55.7850000   4.1630000  62.1100000
  56.6790000   1.2030000  59.3650000  55.5380000   3.3100000  59.6480000
  57.7240000  -0.7270000  59.1900000  56.2740000   1.2290000  57.9440000
  55.1770000   3.3500000  58.3320000  55.2370000   4.1130000  60.2970000
  55.5180000   2.2940000  57.4370000  56.6240000   0.2260000  57.0570000
  54.6070000   4.1950000  57.9680000  55.1010000   2.3740000  56.0960000
  56.2080000   0.2880000  55.7120000  57.2390000  -0.5980000  57.3900000
  55.4620000   1.3510000  55.2660000  54.5200000   3.2110000  55.7350000
  56.4670000  -0.5130000  55.0390000  55.1630000   1.3830000  54.2340000
  58.1750000  38.0280000   9.4220000  58.9120000  36.9780000   9.9910000
  57.7760000  39.0700000  10.3120000  57.7970000  38.0900000   8.0150000
  59.2140000  36.9840000  11.3670000  59.2420000  36.1640000   9.3710000
  58.0370000  39.0450000  11.7090000  57.0390000  40.1120000   9.7480000
  57.0670000  39.1580000   7.5150000  58.2270000  37.0340000   7.1450000
  58.7550000  37.9760000  12.1730000  59.8220000  36.1860000  11.7930000
  57.6860000  39.8130000  12.3790000  56.7290000  40.2010000   8.4180000
  56.6810000  40.9080000  10.4020000  56.7140000  39.1710000   6.1300000
  57.8680000  37.0160000   5.7860000  58.8360000  36.2390000   7.5380000
  58.9660000  37.9220000  13.2210000  56.2190000  41.0870000   8.0520000
  57.1130000  38.1270000   5.3070000  55.9720000  40.2340000   5.5900000
  58.1580000  36.1970000   5.1310000  56.7080000  38.1530000   3.8850000
  55.6110000  40.2740000   4.2730000  55.6710000  41.0370000   6.2380000
  55.9520000  39.2180000   3.3790000  57.0580000  37.1500000   2.9990000
  55.0410000  41.1190000   3.9100000  55.5350000  39.2980000   2.0380000
  56.6420000  37.2120000   1.6540000  57.6730000  36.3260000   3.3310000
  55.8960000  38.2750000   1.2080000  54.9540000  40.1350000   1.6770000
  56.9010000  36.4110000   0.9810000  55.5970000  38.3070000   0.1760000
  58.0670000  38.0280000  22.9370000  58.8030000  36.9780000  23.5060000
  57.6680000  39.0700000  23.8260000  57.6890000  38.0900000  21.5300000
  59.1050000  36.9840000  24.8820000  59.1330000  36.1640000  22.8860000
  57.9290000  39.0450000  25.2240000  56.9300000  40.1120000  23.2630000
  56.9580000  39.1580000  21.0300000  58.1180000  37.0340000  20.6600000
  58.6470000  37.9760000  25.6870000  59.7130000  36.1860000  25.3070000
  57.5770000  39.8130000  25.8940000  56.6200000  40.2010000  21.9330000
  56.5720000  40.9080000  23.9170000  56.6060000  39.1710000  19.6450000
  57.7590000  37.0160000  19.3000000  58.7270000  36.2390000  21.0530000
  58.8570000  37.9220000  26.7360000  56.1100000  41.0870000  21.5670000
  57.0050000  38.1270000  18.8220000  55.8640000  40.2340000  19.1040000
  58.0490000  36.1970000  18.6460000  56.6000000  38.1530000  17.4000000
  55.5030000  40.2740000  17.7880000  55.5630000  41.0370000  19.7530000
  55.8430000  39.2180000  16.8930000  56.9500000  37.1500000  16.5130000
  54.9330000  41.1190000  17.4240000  55.4270000  39.2980000  15.5530000
  56.5330000  37.2120000  15.1690000  57.5640000  36.3260000  16.8460000
  55.7870000  38.2750000  14.7230000  54.8450000  40.1350000  15.1920000
  56.7920000  36.4110000  14.4960000  55.4880000  38.3070000  13.6900000
  57.9580000  38.0280000  36.4510000  58.6950000  36.9780000  37.0200000
  57.5590000  39.0700000  37.3410000  57.5800000  38.0900000  35.0450000
  58.9970000  36.9840000  38.3960000  59.0250000  36.1640000  36.4000000
  57.8200000  39.0450000  38.7380000  56.8220000  40.1120000  36.7770000
  56.8500000  39.1580000  34.5450000  58.0100000  37.0340000  34.1740000
  58.5380000  37.9760000  39.2020000  59.6050000  36.1860000  38.8220000
  57.4690000  39.8130000  39.4080000  56.5120000  40.2010000  35.4470000
  56.4640000  40.9080000  37.4310000  56.4970000  39.1710000  33.1590000
  57.6510000  37.0160000  32.8150000  58.6190000  36.2390000  34.5680000
  58.7490000  37.9220000  40.2500000  56.0020000  41.0870000  35.0810000
  56.8960000  38.1270000  32.3360000  55.7550000  40.2340000  32.6190000
  57.9410000  36.1970000  32.1610000  56.4910000  38.1530000  30.9150000
  55.3940000  40.2740000  31.3020000  55.4540000  41.0370000  33.2670000
  55.7350000  39.2180000  30.4080000  56.8410000  37.1500000  30.0280000
  54.8240000  41.1190000  30.9390000  55.3180000  39.2980000  29.0670000
  56.4250000  37.2120000  28.6830000  57.4560000  36.3260000  30.3600000
  55.6790000  38.2750000  28.2370000  54.7370000  40.1350000  28.7060000
  56.6840000  36.4110000  28.0100000  55.3800000  38.3070000  27.2050000
  57.8500000  38.0280000  49.9660000  58.5860000  36.9780000  50.5350000
  57.4510000  39.0700000  50.8550000  57.4720000  38.0900000  48.5590000
  58.8880000  36.9840000  51.9110000  58.9160000  36.1640000  49.9150000
  57.7120000  39.0450000  52.2530000  56.7130000  40.1120000  50.2920000
  56.7410000  39.1580000  48.0590000  57.9010000  37.0340000  47.6890000
  58.4300000  37.9760000  52.7160000  59.4960000  36.1860000  52.3370000
  57.3600000  39.8130000  52.9230000  56.4030000  40.2010000  48.9620000
  56.3550000  40.9080000  50.9460000  56.3890000  39.1710000  46.6740000
  57.5420000  37.0160000  46.3290000  58.5100000  36.2390000  48.0820000
  58.6400000  37.9220000  53.7650000  55.8930000  41.0870000  48.5960000
  56.7880000  38.1270000  45.8510000  55.6470000  40.2340000  46.1330000
  57.8320000  36.1970000  45.6750000  56.3830000  38.1530000  44.4290000
  55.2860000  40.2740000  44.8170000  55.3460000  41.0370000  46.7820000
  55.6260000  39.2180000  43.9220000  56.7330000  37.1500000  43.5430000
  54.7160000  41.1190000  44.4530000  55.2100000  39.2980000  42.5820000
  56.3160000  37.2120000  42.1980000  57.3470000  36.3260000  43.8750000
  55.5700000  38.2750000  41.7520000  54.6280000  40.1350000  42.2210000
  56.5750000  36.4110000  41.5250000  55.2710000  38.3070000  40.7190000
  57.7410000  38.0280000  63.4810000  58.4780000  36.9780000  64.0500000
  57.3420000  39.0700000  64.3700000  57.3630000  38.0900000  62.0740000
  58.7800000  36.9840000  65.4250000  58.8070000  36.1640000  63.4290000
  57.6030000  39.0450000  65.7670000  56.6050000  40.1120000  63.8060000
  56.6330000  39.1580000  61.5740000  57.7930000  37.0340000  61.2030000
  58.3210000  37.9760000  66.2310000  59.3880000  36.1860000  65.8510000
  57.2520000  39.8130000  66.4380000  56.2950000  40.2010000  62.4760000
  56.2470000  40.9080000  64.4600000  56.2800000  39.1710000  60.1880000
  57.4340000  37.0160000  59.8440000  58.4020000  36.2390000  61.5970000
  58.5320000  37.9220000  67.2800000  55.7850000  41.0870000  62.1100000
  56.6790000  38.1270000  59.3650000  55.5380000  40.2340000  59.6480000
  57.7240000  36.1970000  59.1900000  56.2740000  38.1530000  57.9440000
  55.1770000  40.2740000  58.3320000  55.2370000  41.0370000  60.2970000
  55.5180000  39.2180000  57.4370000  56.6240000  37.1500000  57.0570000
  54.6070000  41.1190000  57.9680000  55.1010000  39.2980000  56.0960000
  56.2080000  37.2120000  55.7120000  57.2390000  36.3260000  57.3900000
  55.4620000  38.2750000  55.2660000  54.5200000  40.1350000  55.7350000
  56.4670000  36.4110000  55.0390000  55.1630000  38.3070000  54.2340000
   0.9680000   4.1810000  17.6070000   0.2310000   3.1310000  17.0380000
   1.3670000   5.2230000  16.7180000   1.3460000   4.2430000  19.0140000
  -0.0710000   3.1370000  15.6620000  -0.0990000   2.3170000  17.6580000
   1.1060000   5.1980000  15.3200000   2.1040000   6.2650000  17.2810000
   2.0760000   5.3110000  19.5140000   0.9160000   3.1870000  19.8840000
   0.3880000   4.1290000  14.8570000  -0.6790000   2.3390000  15.2360000
   1.4570000   5.9660000  14.6500000   2.4140000   6.3540000  18.6110000
   2.4620000   7.0610000  16.6270000   2.4290000   5.3240000  20.8990000
   1.2750000   3.1690000  21.2440000   0.3070000   2.3920000  19.4910000
   0.1770000   4.0750000  13.8080000   2.9240000   7.2400000  18.9770000
   2.0300000   4.2800000  21.7220000   3.1710000   6.3870000  21.4400000
   0.9850000   2.3500000  21.8980000   2.4350000   4.3060000  23.1440000
   3.5320000   6.4270000  22.7560000   3.4720000   7.1900000  20.7910000
   3.1910000   5.3710000  23.6500000   2.0850000   3.3030000  24.0300000
   4.1020000   7.2720000  23.1190000   3.6080000   5.4510000  24.9910000
   2.5010000   3.3650000  25.3750000   1.4700000   2.4790000  23.6980000
   3.2470000   4.4280000  25.8210000   4.1890000   6.2880000  25.3520000
   2.2420000   2.5640000  26.0480000   3.5460000   4.4600000  26.8530000
   0.7510000   4.1810000  44.6360000   0.0140000   3.1310000  44.0670000
   1.1500000   5.2230000  43.7470000   1.1290000   4.2430000  46.0430000
  -0.2880000   3.1370000  42.6910000  -0.3160000   2.3170000  44.6870000
   0.8890000   5.1980000  42.3490000   1.8870000   6.2650000  44.3100000
   1.8590000   5.3110000  46.5430000   0.6990000   3.1870000  46.9130000
   0.1710000   4.1290000  41.8860000  -0.8960000   2.3390000  42.2650000
   1.2400000   5.9660000  41.6790000   2.1970000   6.3540000  45.6400000
   2.2450000   7.0610000  43.6560000   2.2120000   5.3240000  47.9280000
   1.0580000   3.1690000  48.2730000   0.0900000   2.3920000  46.5200000
  -0.0400000   4.0750000  40.8370000   2.7070000   7.2400000  46.0060000
   1.8130000   4.2800000  48.7510000   2.9540000   6.3870000  48.4690000
   0.7680000   2.3500000  48.9270000   2.2170000   4.3060000  50.1730000
   3.3150000   6.4270000  49.7850000   3.2550000   7.1900000  47.8200000
   2.9740000   5.3710000  50.6800000   1.8680000   3.3030000  51.0590000
   3.8850000   7.2720000  50.1480000   3.3910000   5.4510000  52.0200000
   2.2840000   3.3650000  52.4040000   1.2530000   2.4790000  50.7270000
   3.0300000   4.4280000  52.8500000   3.9720000   6.2880000  52.3810000
   2.0250000   2.5640000  53.0770000   3.3290000   4.4600000  53.8830000
   1.0760000  10.3350000   4.0920000   0.3400000   9.2850000   3.5230000
   1.4750000  11.3770000   3.2030000   1.4540000  10.3970000   5.4990000
   0.0380000   9.2910000   2.1470000   0.0100000   8.4710000   4.1440000
   1.2140000  11.3520000   1.8060000   2.2130000  12.4190000   3.7670000
   2.1850000  11.4650000   5.9990000   1.0250000   9.3410000   6.3690000
   0.4960000  10.2830000   1.3420000  -0.5700000   8.4930000   1.7220000
   1.5660000  12.1200000   1.1350000   2.5230000  12.5080000   5.0960000
   2.5710000  13.2150000   3.1120000   2.5370000  11.4780000   7.3840000
   1.3840000   9.3230000   7.7290000   0.4160000   8.5460000   5.9760000
   0.2860000  10.2290000   0.2930000   3.0330000  13.3940000   5.4630000
   2.1380000  10.4340000   8.2070000   3.2790000  12.5410000   7.9250000
   1.0940000   8.5040000   8.3830000   2.5430000  10.4600000   9.6290000
   3.6400000  12.5810000   9.2410000   3.5800000  13.3440000   7.2760000
   3.3000000  11.5250000  10.1360000   2.1930000   9.4570000  10.5160000
   4.2100000  13.4260000   9.6050000   3.7160000  11.6050000  11.4770000
   2.6100000   9.5190000  11.8600000   1.5790000   8.6330000  10.1830000
   3.3560000  10.5820000  12.3060000   4.2980000  12.4420000  11.8370000
   2.3510000   8.7180000  12.5330000   3.6550000  10.6140000  13.3390000
   0.9680000  10.3350000  17.6070000   0.2310000   9.2850000  17.0380000
   1.3670000  11.3770000  16.7180000   1.3460000  10.3970000  19.0140000
  -0.0710000   9.2910000  15.6620000  -0.0990000   8.4710000  17.6580000
   1.1060000  11.3520000  15.3200000   2.1040000  12.4190000  17.2810000
   2.0760000  11.4650000  19.5140000   0.9160000   9.3410000  19.8840000
   0.3880000  10.2830000  14.8570000  -0.6790000   8.4930000  15.2360000
   1.4570000  12.1200000  14.6500000   2.4140000  12.5080000  18.6110000
   2.4620000  13.2150000  16.6270000   2.4290000  11.4780000  20.8990000
   1.2750000   9.3230000  21.2440000   0.3070000   8.5460000  19.4910000
   0.1770000  10.2290000  13.8080000   2.9240000  13.3940000  18.9770000
   2.0300000  10.4340000  21.7220000   3.1710000  12.5410000  21.4400000
   0.9850000   8.5040000  21.8980000   2.4350000  10.4600000  23.1440000
   3.5320000  12.5810000  22.7560000   3.4720000  13.3440000  20.7910000
   3.1910000  11.5250000  23.6500000   2.0850000   9.4570000  24.0300000
   4.1020000  13.4260000  23.1190000   3.6080000  11.6050000  24.9910000
   2.5010000   9.5190000  25.3750000   1.4700000   8.6330000  23.6980000
   3.2470000  10.5820000  25.8210000   4.1890000  12.4420000  25.3520000
   2.2420000   8.7180000  26.0480000   3.5460000  10.6140000  26.8530000
   0.8590000  10.3350000  31.1210000   0.1230000   9.2850000  30.5520000
   1.2580000  11.3770000  30.2320000   1.2370000  10.3970000  32.5280000
  -0.1790000   9.2910000  29.1770000  -0.2070000   8.4710000  31.1730000
   0.9970000  11.3520000  28.8350000   1.9960000  12.4190000  30.7960000
   1.9680000  11.4650000  33.0280000   0.8080000   9.3410000  33.3990000
   0.2790000  10.2830000  28.3710000  -0.7870000   8.4930000  28.7510000
   1.3490000  12.1200000  28.1640000   2.3060000  12.5080000  32.1250000
   2.3540000  13.2150000  30.1420000   2.3200000  11.4780000  34.4130000
   1.1670000   9.3230000  34.7580000   0.1990000   8.5460000  33.0050000
   0.0690000  10.2290000  27.3220000   2.8160000  13.3940000  32.4920000
   1.9210000  10.4340000  35.2370000   3.0620000  12.5410000  34.9540000
   0.8770000   8.5040000  35.4120000   2.3260000  10.4600000  36.6580000
   3.4230000  12.5810000  36.2700000   3.3630000  13.3440000  34.3050000
   3.0830000  11.5250000  37.1650000   1.9760000   9.4570000  37.5450000
   3.9930000  13.4260000  36.6340000   3.4990000  11.6050000  38.5060000
   2.3930000   9.5190000  38.8900000   1.3620000   8.6330000  37.2120000
   3.1390000  10.5820000  39.3350000   4.0810000  12.4420000  38.8670000
   2.1340000   8.7180000  39.5630000   3.4380000  10.6140000  40.3680000
   0.7510000  10.3350000  44.6360000   0.0140000   9.2850000  44.0670000
   1.1500000  11.3770000  43.7470000   1.1290000  10.3970000  46.0430000
  -0.2880000   9.2910000  42.6910000  -0.3160000   8.4710000  44.6870000
   0.8890000  11.3520000  42.3490000   1.8870000  12.4190000  44.3100000
   1.8590000  11.4650000  46.5430000   0.6990000   9.3410000  46.9130000
   0.1710000  10.2830000  41.8860000  -0.8960000   8.4930000  42.2650000
   1.2400000  12.1200000  41.6790000   2.1970000  12.5080000  45.6400000
   2.2450000  13.2150000  43.6560000   2.2120000  11.4780000  47.9280000
   1.0580000   9.3230000  48.2730000   0.0900000   8.5460000  46.5200000
  -0.0400000  10.2290000  40.8370000   2.7070000  13.3940000  46.0060000
   1.8130000  10.4340000  48.7510000   2.9540000  12.5410000  48.4690000
   0.7680000   8.5040000  48.9270000   2.2170000  10.4600000  50.1730000
   3.3150000  12.5810000  49.7850000   3.2550000  13.3440000  47.8200000
   2.9740000  11.5250000  50.6800000   1.8680000   9.4570000  51.0590000
   3.8850000  13.4260000  50.1480000   3.3910000  11.6050000  52.0200000
   2.2840000   9.5190000  52.4040000   1.2530000   8.6330000  50.7270000
   3.0300000  10.5820000  52.8500000   3.9720000  12.4420000  52.3810000
   2.0250000   8.7180000  53.0770000   3.3290000  10.6140000  53.8830000
   0.6420000  10.3350000  58.1500000  -0.0940000   9.2850000  57.5820000
   1.0410000  11.3770000  57.2610000   1.0200000  10.3970000  59.5570000
  -0.3960000   9.2910000  56.2060000  -0.4240000   8.4710000  58.2020000
   0.7800000  11.3520000  55.8640000   1.7790000  12.4190000  57.8250000
   1.7510000  11.4650000  60.0570000   0.5910000   9.3410000  60.4280000
   0.0620000  10.2830000  55.4000000  -1.0040000   8.4930000  55.7800000
   1.1320000  12.1200000  55.1930000   2.0890000  12.5080000  59.1550000
   2.1370000  13.2150000  57.1710000   2.1030000  11.4780000  61.4430000
   0.9500000   9.3230000  61.7870000  -0.0180000   8.5460000  60.0340000
  -0.1480000  10.2290000  54.3520000   2.5990000  13.3940000  59.5210000
   1.7040000  10.4340000  62.2660000   2.8450000  12.5410000  61.9830000
   0.6600000   8.5040000  62.4410000   2.1090000  10.4600000  63.6870000
   3.2060000  12.5810000  63.3000000   3.1460000  13.3440000  61.3340000
   2.8660000  11.5250000  64.1940000   1.7590000   9.4570000  64.5740000
   3.7760000  13.4260000  63.6630000   3.2820000  11.6050000  65.5350000
   2.1760000   9.5190000  65.9190000   1.1450000   8.6330000  64.2410000
   2.9220000  10.5820000  66.3650000   3.8640000  12.4420000  65.8960000
   1.9170000   8.7180000  66.5920000   3.2210000  10.6140000  67.3970000
   1.0760000   4.1810000   4.0920000   0.3400000   3.1310000   3.5230000
   1.4750000   5.2230000   3.2030000   1.4540000   4.2430000   5.4990000
   0.0380000   3.1370000   2.1470000   0.0100000   2.3170000   4.1440000
   1.2140000   5.1980000   1.8060000   2.2130000   6.2650000   3.7670000
   2.1850000   5.3110000   5.9990000   1.0250000   3.1870000   6.3690000
   0.4960000   4.1290000   1.3420000  -0.5700000   2.3390000   1.7220000
   1.5660000   5.9660000   1.1350000   2.5230000   6.3540000   5.0960000
   2.5710000   7.0610000   3.1120000   2.5370000   5.3240000   7.3840000
   1.3840000   3.1690000   7.7290000   0.4160000   2.3920000   5.9760000
   0.2860000   4.0750000   0.2930000   3.0330000   7.2400000   5.4630000
   2.1380000   4.2800000   8.2070000   3.2790000   6.3870000   7.9250000
   1.0940000   2.3500000   8.3830000   2.5430000   4.3060000   9.6290000
   3.6400000   6.4270000   9.2410000   3.5800000   7.1900000   7.2760000
   3.3000000   5.3710000  10.1360000   2.1930000   3.3030000  10.5160000
   4.2100000   7.2720000   9.6050000   3.7160000   5.4510000  11.4770000
   2.6100000   3.3650000  11.8600000   1.5790000   2.4790000  10.1830000
   3.3560000   4.4280000  12.3060000   4.2980000   6.2880000  11.8370000
   2.3510000   2.5640000  12.5330000   3.6550000   4.4600000  13.3390000
   0.8590000   4.1810000  31.1210000   0.1230000   3.1310000  30.5520000
   1.2580000   5.2230000  30.2320000   1.2370000   4.2430000  32.5280000
  -0.1790000   3.1370000  29.1770000  -0.2070000   2.3170000  31.1730000
   0.9970000   5.1980000  28.8350000   1.9960000   6.2650000  30.7960000
   1.9680000   5.3110000  33.0280000   0.8080000   3.1870000  33.3990000
   0.2790000   4.1290000  28.3710000  -0.7870000   2.3390000  28.7510000
   1.3490000   5.9660000  28.1640000   2.3060000   6.3540000  32.1250000
   2.3540000   7.0610000  30.1420000   2.3200000   5.3240000  34.4130000
   1.1670000   3.1690000  34.7580000   0.1990000   2.3920000  33.0050000
   0.0690000   4.0750000  27.3220000   2.8160000   7.2400000  32.4920000
   1.9210000   4.2800000  35.2370000   3.0620000   6.3870000  34.9540000
   0.8770000   2.3500000  35.4120000   2.3260000   4.3060000  36.6580000
   3.4230000   6.4270000  36.2700000   3.3630000   7.1900000  34.3050000
   3.0830000   5.3710000  37.1650000   1.9760000   3.3030000  37.5450000
   3.9930000   7.2720000  36.6340000   3.4990000   5.4510000  38.5060000
   2.3930000   3.3650000  38.8900000   1.3620000   2.4790000  37.2120000
   3.1390000   4.4280000  39.3350000   4.0810000   6.2880000  38.8670000
   2.1340000   2.5640000  39.5630000   3.4380000   4.4600000  40.3680000
   0.6420000   4.1810000  58.1500000  -0.0940000   3.1310000  57.5820000
   1.0410000   5.2230000  57.2610000   1.0200000   4.2430000  59.5570000
  -0.3960000   3.1370000  56.2060000  -0.4240000   2.3170000  58.2020000
   0.7800000   5.1980000  55.8640000   1.7790000   6.2650000  57.8250000
   1.7510000   5.3110000  60.0570000   0.5910000   3.1870000  60.4280000
   0.0620000   4.1290000  55.4000000  -1.0040000   2.3390000  55.7800000
   1.1320000   5.9660000  55.1930000   2.0890000   6.3540000  59.1550000
   2.1370000   7.0610000  57.1710000   2.1030000   5.3240000  61.4430000
   0.9500000   3.1690000  61.7870000  -0.0180000   2.3920000  60.0340000
  -0.1480000   4.0750000  54.3520000   2.5990000   7.2400000  59.5210000
   1.7040000   4.2800000  62.2660000   2.8450000   6.3870000  61.9830000
   0.6600000   2.3500000  62.4410000   2.1090000   4.3060000  63.6870000
   3.2060000   6.4270000  63.3000000   3.1460000   7.1900000  61.3340000
   2.8660000   5.3710000  64.1940000   1.7590000   3.3030000  64.5740000
   3.7760000   7.2720000  63.6630000   3.2820000   5.4510000  65.5350000
   2.1760000   3.3650000  65.9190000   1.1450000   2.4790000  64.2410000
   2.9220000   4.4280000  66.3650000   3.8640000   6.2880000  65.8960000
   1.9170000   2.5640000  66.5920000   3.2210000   4.4600000  67.3970000
   1.0760000  16.4890000   4.0920000   0.3400000  15.4390000   3.5230000
   1.4750000  17.5310000   3.2030000   1.4540000  16.5510000   5.4990000
   0.0380000  15.4450000   2.1470000   0.0100000  14.6250000   4.1440000
   1.2140000  17.5060000   1.8060000   2.2130000  18.5730000   3.7670000
   2.1850000  17.6190000   5.9990000   1.0250000  15.4950000   6.3690000
   0.4960000  16.4370000   1.3420000  -0.5700000  14.6470000   1.7220000
   1.5660000  18.2740000   1.1350000   2.5230000  18.6620000   5.0960000
   2.5710000  19.3690000   3.1120000   2.5370000  17.6320000   7.3840000
   1.3840000  15.4770000   7.7290000   0.4160000  14.7000000   5.9760000
   0.2860000  16.3830000   0.2930000   3.0330000  19.5480000   5.4630000
   2.1380000  16.5880000   8.2070000   3.2790000  18.6950000   7.9250000
   1.0940000  14.6580000   8.3830000   2.5430000  16.6140000   9.6290000
   3.6400000  18.7350000   9.2410000   3.5800000  19.4980000   7.2760000
   3.3000000  17.6790000  10.1360000   2.1930000  15.6110000  10.5160000
   4.2100000  19.5800000   9.6050000   3.7160000  17.7590000  11.4770000
   2.6100000  15.6730000  11.8600000   1.5790000  14.7870000  10.1830000
   3.3560000  16.7360000  12.3060000   4.2980000  18.5960000  11.8370000
   2.3510000  14.8720000  12.5330000   3.6550000  16.7680000  13.3390000
   0.9680000  16.4890000  17.6070000   0.2310000  15.4390000  17.0380000
   1.3670000  17.5310000  16.7180000   1.3460000  16.5510000  19.0140000
  -0.0710000  15.4450000  15.6620000  -0.0990000  14.6250000  17.6580000
   1.1060000  17.5060000  15.3200000   2.1040000  18.5730000  17.2810000
   2.0760000  17.6190000  19.5140000   0.9160000  15.4950000  19.8840000
   0.3880000  16.4370000  14.8570000  -0.6790000  14.6470000  15.2360000
   1.4570000  18.2740000  14.6500000   2.4140000  18.6620000  18.6110000
   2.4620000  19.3690000  16.6270000   2.4290000  17.6320000  20.8990000
   1.2750000  15.4770000  21.2440000   0.3070000  14.7000000  19.4910000
   0.1770000  16.3830000  13.8080000   2.9240000  19.5480000  18.9770000
   2.0300000  16.5880000  21.7220000   3.1710000  18.6950000  21.4400000
   0.9850000  14.6580000  21.8980000   2.4350000  16.6140000  23.1440000
   3.5320000  18.7350000  22.7560000   3.4720000  19.4980000  20.7910000
   3.1910000  17.6790000  23.6500000   2.0850000  15.6110000  24.0300000
   4.1020000  19.5800000  23.1190000   3.6080000  17.7590000  24.9910000
   2.5010000  15.6730000  25.3750000   1.4700000  14.7870000  23.6980000
   3.2470000  16.7360000  25.8210000   4.1890000  18.5960000  25.3520000
   2.2420000  14.8720000  26.0480000   3.5460000  16.7680000  26.8530000
   0.8590000  16.4890000  31.1210000   0.1230000  15.4390000  30.5520000
   1.2580000  17.5310000  30.2320000   1.2370000  16.5510000  32.5280000
  -0.1790000  15.4450000  29.1770000  -0.2070000  14.6250000  31.1730000
   0.9970000  17.5060000  28.8350000   1.9960000  18.5730000  30.7960000
   1.9680000  17.6190000  33.0280000   0.8080000  15.4950000  33.3990000
   0.2790000  16.4370000  28.3710000  -0.7870000  14.6470000  28.7510000
   1.3490000  18.2740000  28.1640000   2.3060000  18.6620000  32.1250000
   2.3540000  19.3690000  30.1420000   2.3200000  17.6320000  34.4130000
   1.1670000  15.4770000  34.7580000   0.1990000  14.7000000  33.0050000
   0.0690000  16.3830000  27.3220000   2.8160000  19.5480000  32.4920000
   1.9210000  16.5880000  35.2370000   3.0620000  18.6950000  34.9540000
   0.8770000  14.6580000  35.4120000   2.3260000  16.6140000  36.6580000
   3.4230000  18.7350000  36.2700000   3.3630000  19.4980000  34.3050000
   3.0830000  17.6790000  37.1650000   1.9760000  15.6110000  37.5450000
   3.9930000  19.5800000  36.6340000   3.4990000  17.7590000  38.5060000
   2.3930000  15.6730000  38.8900000   1.3620000  14.7870000  37.2120000
   3.1390000  16.7360000  39.3350000   4.0810000  18.5960000  38.8670000
   2.1340000  14.8720000  39.5630000   3.4380000  16.7680000  40.3680000
   0.7510000  16.4890000  44.6360000   0.0140000  15.4390000  44.0670000
   1.1500000  17.5310000  43.7470000   1.1290000  16.5510000  46.0430000
  -0.2880000  15.4450000  42.6910000  -0.3160000  14.6250000  44.6870000
   0.8890000  17.5060000  42.3490000   1.8870000  18.5730000  44.3100000
   1.8590000  17.6190000  46.5430000   0.6990000  15.4950000  46.9130000
   0.1710000  16.4370000  41.8860000  -0.8960000  14.6470000  42.2650000
   1.2400000  18.2740000  41.6790000   2.1970000  18.6620000  45.6400000
   2.2450000  19.3690000  43.6560000   2.2120000  17.6320000  47.9280000
   1.0580000  15.4770000  48.2730000   0.0900000  14.7000000  46.5200000
  -0.0400000  16.3830000  40.8370000   2.7070000  19.5480000  46.0060000
   1.8130000  16.5880000  48.7510000   2.9540000  18.6950000  48.4690000
   0.7680000  14.6580000  48.9270000   2.2170000  16.6140000  50.1730000
   3.3150000  18.7350000  49.7850000   3.2550000  19.4980000  47.8200000
   2.9740000  17.6790000  50.6800000   1.8680000  15.6110000  51.0590000
   3.8850000  19.5800000  50.1480000   3.3910000  17.7590000  52.0200000
   2.2840000  15.6730000  52.4040000   1.2530000  14.7870000  50.7270000
   3.0300000  16.7360000  52.8500000   3.9720000  18.5960000  52.3810000
   2.0250000  14.8720000  53.0770000   3.3290000  16.7680000  53.8830000
   0.6420000  16.4890000  58.1500000  -0.0940000  15.4390000  57.5820000
   1.0410000  17.5310000  57.2610000   1.0200000  16.5510000  59.5570000
  -0.3960000  15.4450000  56.2060000  -0.4240000  14.6250000  58.2020000
   0.7800000  17.5060000  55.8640000   1.7790000  18.5730000  57.8250000
   1.7510000  17.6190000  60.0570000   0.5910000  15.4950000  60.4280000
   0.0620000  16.4370000  55.4000000  -1.0040000  14.6470000  55.7800000
   1.1320000  18.2740000  55.1930000   2.0890000  18.6620000  59.1550000
   2.1370000  19.3690000  57.1710000   2.1030000  17.6320000  61.4430000
   0.9500000  15.4770000  61.7870000  -0.0180000  14.7000000  60.0340000
  -0.1480000  16.3830000  54.3520000   2.5990000  19.5480000  59.5210000
   1.7040000  16.5880000  62.2660000   2.8450000  18.6950000  61.9830000
   0.6600000  14.6580000  62.4410000   2.1090000  16.6140000  63.6870000
   3.2060000  18.7350000  63.3000000   3.1460000  19.4980000  61.3340000
   2.8660000  17.6790000  64.1940000   1.7590000  15.6110000  64.5740000
   3.7760000  19.5800000  63.6630000   3.2820000  17.7590000  65.5350000
   2.1760000  15.6730000  65.9190000   1.1450000  14.7870000  64.2410000
   2.9220000  16.7360000  66.3650000   3.8640000  18.5960000  65.8960000
   1.9170000  14.8720000  66.5920000   3.2210000  16.7680000  67.3970000
   1.0760000  22.6430000   4.0920000   0.3400000  21.5930000   3.5230000
   1.4750000  23.6850000   3.2030000   1.4540000  22.7050000   5.4990000
   0.0380000  21.5990000   2.1470000   0.0100000  20.7790000   4.1440000
   1.2140000  23.6600000   1.8060000   2.2130000  24.7270000   3.7670000
   2.1850000  23.7730000   5.9990000   1.0250000  21.6490000   6.3690000
   0.4960000  22.5910000   1.3420000  -0.5700000  20.8010000   1.7220000
   1.5660000  24.4280000   1.1350000   2.5230000  24.8160000   5.0960000
   2.5710000  25.5230000   3.1120000   2.5370000  23.7860000   7.3840000
   1.3840000  21.6310000   7.7290000   0.4160000  20.8540000   5.9760000
   0.2860000  22.5370000   0.2930000   3.0330000  25.7020000   5.4630000
   2.1380000  22.7420000   8.2070000   3.2790000  24.8490000   7.9250000
   1.0940000  20.8120000   8.3830000   2.5430000  22.7680000   9.6290000
   3.6400000  24.8890000   9.2410000   3.5800000  25.6520000   7.2760000
   3.3000000  23.8330000  10.1360000   2.1930000  21.7650000  10.5160000
   4.2100000  25.7340000   9.6050000   3.7160000  23.9130000  11.4770000
   2.6100000  21.8270000  11.8600000   1.5790000  20.9410000  10.1830000
   3.3560000  22.8900000  12.3060000   4.2980000  24.7500000  11.8370000
   2.3510000  21.0260000  12.5330000   3.6550000  22.9220000  13.3390000
   0.9680000  22.6430000  17.6070000   0.2310000  21.5930000  17.0380000
   1.3670000  23.6850000  16.7180000   1.3460000  22.7050000  19.0140000
  -0.0710000  21.5990000  15.6620000  -0.0990000  20.7790000  17.6580000
   1.1060000  23.6600000  15.3200000   2.1040000  24.7270000  17.2810000
   2.0760000  23.7730000  19.5140000   0.9160000  21.6490000  19.8840000
   0.3880000  22.5910000  14.8570000  -0.6790000  20.8010000  15.2360000
   1.4570000  24.4280000  14.6500000   2.4140000  24.8160000  18.6110000
   2.4620000  25.5230000  16.6270000   2.4290000  23.7860000  20.8990000
   1.2750000  21.6310000  21.2440000   0.3070000  20.8540000  19.4910000
   0.1770000  22.5370000  13.8080000   2.9240000  25.7020000  18.9770000
   2.0300000  22.7420000  21.7220000   3.1710000  24.8490000  21.4400000
   0.9850000  20.8120000  21.8980000   2.4350000  22.7680000  23.1440000
   3.5320000  24.8890000  22.7560000   3.4720000  25.6520000  20.7910000
   3.1910000  23.8330000  23.6500000   2.0850000  21.7650000  24.0300000
   4.1020000  25.7340000  23.1190000   3.6080000  23.9130000  24.9910000
   2.5010000  21.8270000  25.3750000   1.4700000  20.9410000  23.6980000
   3.2470000  22.8900000  25.8210000   4.1890000  24.7500000  25.3520000
   2.2420000  21.0260000  26.0480000   3.5460000  22.9220000  26.8530000
   0.8590000  22.6430000  31.1210000   0.1230000  21.5930000  30.5520000
   1.2580000  23.6850000  30.2320000   1.2370000  22.7050000  32.5280000
  -0.1790000  21.5990000  29.1770000  -0.2070000  20.7790000  31.1730000
   0.9970000  23.6600000  28.8350000   1.9960000  24.7270000  30.7960000
   1.9680000  23.7730000  33.0280000   0.8080000  21.6490000  33.3990000
   0.2790000  22.5910000  28.3710000  -0.7870000  20.8010000  28.7510000
   1.3490000  24.4280000  28.1640000   2.3060000  24.8160000  32.1250000
   2.3540000  25.5230000  30.1420000   2.3200000  23.7860000  34.4130000
   1.1670000  21.6310000  34.7580000   0.1990000  20.8540000  33.0050000
   0.0690000  22.5370000  27.3220000   2.8160000  25.7020000  32.4920000
   1.9210000  22.7420000  35.2370000   3.0620000  24.8490000  34.9540000
   0.8770000  20.8120000  35.4120000   2.3260000  22.7680000  36.6580000
   3.4230000  24.8890000  36.2700000   3.3630000  25.6520000  34.3050000
   3.0830000  23.8330000  37.1650000   1.9760000  21.7650000  37.5450000
   3.9930000  25.7340000  36.6340000   3.4990000  23.9130000  38.5060000
   2.3930000  21.8270000  38.8900000   1.3620000  20.9410000  37.2120000
   3.1390000  22.8900000  39.3350000   4.0810000  24.7500000  38.8670000
   2.1340000  21.0260000  39.5630000   3.4380000  22.9220000  40.3680000
   0.7510000  22.6430000  44.6360000   0.0140000  21.5930000  44.0670000
   1.1500000  23.6850000  43.7470000   1.1290000  22.7050000  46.0430000
  -0.2880000  21.5990000  42.6910000  -0.3160000  20.7790000  44.6870000
   0.8890000  23.6600000  42.3490000   1.8870000  24.7270000  44.3100000
   1.8590000  23.7730000  46.5430000   0.6990000  21.6490000  46.9130000
   0.1710000  22.5910000  41.8860000  -0.8960000  20.8010000  42.2650000
   1.2400000  24.4280000  41.6790000   2.1970000  24.8160000  45.6400000
   2.2450000  25.5230000  43.6560000   2.2120000  23.7860000  47.9280000
   1.0580000  21.6310000  48.2730000   0.0900000  20.8540000  46.5200000
  -0.0400000  22.5370000  40.8370000   2.7070000  25.7020000  46.0060000
   1.8130000  22.7420000  48.7510000   2.9540000  24.8490000  48.4690000
   0.7680000  20.8120000  48.9270000   2.2170000  22.7680000  50.1730000
   3.3150000  24.8890000  49.7850000   3.2550000  25.6520000  47.8200000
   2.9740000  23.8330000  50.6800000   1.8680000  21.7650000  51.0590000
   3.8850000  25.7340000  50.1480000   3.3910000  23.9130000  52.0200000
   2.2840000  21.8270000  52.4040000   1.2530000  20.9410000  50.7270000
   3.0300000  22.8900000  52.8500000   3.9720000  24.7500000  52.3810000
   2.0250000  21.0260000  53.0770000   3.3290000  22.9220000  53.8830000
   0.6420000  22.6430000  58.1500000  -0.0940000  21.5930000  57.5820000
   1.0410000  23.6850000  57.2610000   1.0200000  22.7050000  59.5570000
  -0.3960000  21.5990000  56.2060000  -0.4240000  20.7790000  58.2020000
   0.7800000  23.6600000  55.8640000   1.7790000  24.7270000  57.8250000
   1.7510000  23.7730000  60.0570000   0.5910000  21.6490000  60.4280000
   0.0620000  22.5910000  55.4000000  -1.0040000  20.8010000  55.7800000
   1.1320000  24.4280000  55.1930000   2.0890000  24.8160000  59.1550000
   2.1370000  25.5230000  57.1710000   2.1030000  23.7860000  61.4430000
   0.9500000  21.6310000  61.7870000  -0.0180000  20.8540000  60.0340000
  -0.1480000  22.5370000  54.3520000   2.5990000  25.7020000  59.5210000
   1.7040000  22.7420000  62.2660000   2.8450000  24.8490000  61.9830000
   0.6600000  20.8120000  62.4410000   2.1090000  22.7680000  63.6870000
   3.2060000  24.8890000  63.3000000   3.1460000  25.6520000  61.3340000
   2.8660000  23.8330000  64.1940000   1.7590000  21.7650000  64.5740000
   3.7760000  25.7340000  63.6630000   3.2820000  23.9130000  65.5350000
   2.1760000  21.8270000  65.9190000   1.1450000  20.9410000  64.2410000
   2.9220000  22.8900000  66.3650000   3.8640000  24.7500000  65.8960000
   1.9170000  21.0260000  66.5920000   3.2210000  22.9220000  67.3970000
   1.0760000  28.7970000   4.0920000   0.3400000  27.7470000   3.5230000
   1.4750000  29.8390000   3.2030000   1.4540000  28.8590000   5.4990000
   0.0380000  27.7530000   2.1470000   0.0100000  26.9330000   4.1440000
   1.2140000  29.8140000   1.8060000   2.2130000  30.8810000   3.7670000
   2.1850000  29.9270000   5.9990000   1.0250000  27.8030000   6.3690000
   0.4960000  28.7450000   1.3420000  -0.5700000  26.9550000   1.7220000
   1.5660000  30.5820000   1.1350000   2.5230000  30.9700000   5.0960000
   2.5710000  31.6770000   3.1120000   2.5370000  29.9400000   7.3840000
   1.3840000  27.7850000   7.7290000   0.4160000  27.0080000   5.9760000
   0.2860000  28.6910000   0.2930000   3.0330000  31.8560000   5.4630000
   2.1380000  28.8960000   8.2070000   3.2790000  31.0030000   7.9250000
   1.0940000  26.9660000   8.3830000   2.5430000  28.9220000   9.6290000
   3.6400000  31.0430000   9.2410000   3.5800000  31.8060000   7.2760000
   3.3000000  29.9870000  10.1360000   2.1930000  27.9190000  10.5160000
   4.2100000  31.8880000   9.6050000   3.7160000  30.0670000  11.4770000
   2.6100000  27.9810000  11.8600000   1.5790000  27.0950000  10.1830000
   3.3560000  29.0440000  12.3060000   4.2980000  30.9040000  11.8370000
   2.3510000  27.1800000  12.5330000   3.6550000  29.0760000  13.3390000
   0.9680000  28.7970000  17.6070000   0.2310000  27.7470000  17.0380000
   1.3670000  29.8390000  16.7180000   1.3460000  28.8590000  19.0140000
  -0.0710000  27.7530000  15.6620000  -0.0990000  26.9330000  17.6580000
   1.1060000  29.8140000  15.3200000   2.1040000  30.8810000  17.2810000
   2.0760000  29.9270000  19.5140000   0.9160000  27.8030000  19.8840000
   0.3880000  28.7450000  14.8570000  -0.6790000  26.9550000  15.2360000
   1.4570000  30.5820000  14.6500000   2.4140000  30.9700000  18.6110000
   2.4620000  31.6770000  16.6270000   2.4290000  29.9400000  20.8990000
   1.2750000  27.7850000  21.2440000   0.3070000  27.0080000  19.4910000
   0.1770000  28.6910000  13.8080000   2.9240000  31.8560000  18.9770000
   2.0300000  28.8960000  21.7220000   3.1710000  31.0030000  21.4400000
   0.9850000  26.9660000  21.8980000   2.4350000  28.9220000  23.1440000
   3.5320000  31.0430000  22.7560000   3.4720000  31.8060000  20.7910000
   3.1910000  29.9870000  23.6500000   2.0850000  27.9190000  24.0300000
   4.1020000  31.8880000  23.1190000   3.6080000  30.0670000  24.9910000
   2.5010000  27.9810000  25.3750000   1.4700000  27.0950000  23.6980000
   3.2470000  29.0440000  25.8210000   4.1890000  30.9040000  25.3520000
   2.2420000  27.1800000  26.0480000   3.5460000  29.0760000  26.8530000
   0.8590000  28.7970000  31.1210000   0.1230000  27.7470000  30.5520000
   1.2580000  29.8390000  30.2320000   1.2370000  28.8590000  32.5280000
  -0.1790000  27.7530000  29.1770000  -0.2070000  26.9330000  31.1730000
   0.9970000  29.8140000  28.8350000   1.9960000  30.8810000  30.7960000
   1.9680000  29.9270000  33.0280000   0.8080000  27.8030000  33.3990000
   0.2790000  28.7450000  28.3710000  -0.7870000  26.9550000  28.7510000
   1.3490000  30.5820000  28.1640000   2.3060000  30.9700000  32.1250000
   2.3540000  31.6770000  30.1420000   2.3200000  29.9400000  34.4130000
   1.1670000  27.7850000  34.7580000   0.1990000  27.0080000  33.0050000
   0.0690000  28.6910000  27.3220000   2.8160000  31.8560000  32.4920000
   1.9210000  28.8960000  35.2370000   3.0620000  31.0030000  34.9540000
   0.8770000  26.9660000  35.4120000   2.3260000  28.9220000  36.6580000
   3.4230000  31.0430000  36.2700000   3.3630000  31.8060000  34.3050000
   3.0830000  29.9870000  37.1650000   1.9760000  27.9190000  37.5450000
   3.9930000  31.8880000  36.6340000   3.4990000  30.0670000  38.5060000
   2.3930000  27.9810000  38.8900000   1.3620000  27.0950000  37.2120000
   3.1390000  29.0440000  39.3350000   4.0810000  30.9040000  38.8670000
   2.1340000  27.1800000  39.5630000   3.4380000  29.0760000  40.3680000
   0.7510000  28.7970000  44.6360000   0.0140000  27.7470000  44.0670000
   1.1500000  29.8390000  43.7470000   1.1290000  28.8590000  46.0430000
  -0.2880000  27.7530000  42.6910000  -0.3160000  26.9330000  44.6870000
   0.8890000  29.8140000  42.3490000   1.8870000  30.8810000  44.3100000
   1.8590000  29.9270000  46.5430000   0.6990000  27.8030000  46.9130000
   0.1710000  28.7450000  41.8860000  -0.8960000  26.9550000  42.2650000
   1.2400000  30.5820000  41.6790000   2.1970000  30.9700000  45.6400000
   2.2450000  31.6770000  43.6560000   2.2120000  29.9400000  47.9280000
   1.0580000  27.7850000  48.2730000   0.0900000  27.0080000  46.5200000
  -0.0400000  28.6910000  40.8370000   2.7070000  31.8560000  46.0060000
   1.8130000  28.8960000  48.7510000   2.9540000  31.0030000  48.4690000
   0.7680000  26.9660000  48.9270000   2.2170000  28.9220000  50.1730000
   3.3150000  31.0430000  49.7850000   3.2550000  31.8060000  47.8200000
   2.9740000  29.9870000  50.6800000   1.8680000  27.9190000  51.0590000
   3.8850000  31.8880000  50.1480000   3.3910000  30.0670000  52.0200000
   2.2840000  27.9810000  52.4040000   1.2530000  27.0950000  50.7270000
   3.0300000  29.0440000  52.8500000   3.9720000  30.9040000  52.3810000
   2.0250000  27.1800000  53.0770000   3.3290000  29.0760000  53.8830000
   0.6420000  28.7970000  58.1500000  -0.0940000  27.7470000  57.5820000
   1.0410000  29.8390000  57.2610000   1.0200000  28.8590000  59.5570000
  -0.3960000  27.7530000  56.2060000  -0.4240000  26.9330000  58.2020000
   0.7800000  29.8140000  55.8640000   1.7790000  30.8810000  57.8250000
   1.7510000  29.9270000  60.0570000   0.5910000  27.8030000  60.4280000
   0.0620000  28.7450000  55.4000000  -1.0040000  26.9550000  55.7800000
   1.1320000  30.5820000  55.1930000   2.0890000  30.9700000  59.1550000
   2.1370000  31.6770000  57.1710000   2.1030000  29.9400000  61.4430000
   0.9500000  27.7850000  61.7870000  -0.0180000  27.0080000  60.0340000
  -0.1480000  28.6910000  54.3520000   2.5990000  31.8560000  59.5210000
   1.7040000  28.8960000  62.2660000   2.8450000  31.0030000  61.9830000
   0.6600000  26.9660000  62.4410000   2.1090000  28.9220000  63.6870000
   3.2060000  31.0430000  63.3000000   3.1460000  31.8060000  61.3340000
   2.8660000  29.9870000  64.1940000   1.7590000  27.9190000  64.5740000
   3.7760000  31.8880000  63.6630000   3.2820000  30.0670000  65.5350000
   2.1760000  27.9810000  65.9190000   1.1450000  27.0950000  64.2410000
   2.9220000  29.0440000  66.3650000   3.8640000  30.9040000  65.8960000
   1.9170000  27.1800000  66.5920000   3.2210000  29.0760000  67.3970000
   1.0760000  34.9510000   4.0920000   0.3400000  33.9010000   3.5230000
   1.4750000  35.9930000   3.2030000   1.4540000  35.0130000   5.4990000
   0.0380000  33.9070000   2.1470000   0.0100000  33.0870000   4.1440000
   1.2140000  35.9680000   1.8060000   2.2130000  37.0350000   3.7670000
   2.1850000  36.0810000   5.9990000   1.0250000  33.9570000   6.3690000
   0.4960000  34.8990000   1.3420000  -0.5700000  33.1090000   1.7220000
   1.5660000  36.7360000   1.1350000   2.5230000  37.1240000   5.0960000
   2.5710000  37.8310000   3.1120000   2.5370000  36.0940000   7.3840000
   1.3840000  33.9390000   7.7290000   0.4160000  33.1620000   5.9760000
   0.2860000  34.8450000   0.2930000   3.0330000  38.0100000   5.4630000
   2.1380000  35.0500000   8.2070000   3.2790000  37.1570000   7.9250000
   1.0940000  33.1200000   8.3830000   2.5430000  35.0760000   9.6290000
   3.6400000  37.1970000   9.2410000   3.5800000  37.9600000   7.2760000
   3.3000000  36.1410000  10.1360000   2.1930000  34.0730000  10.5160000
   4.2100000  38.0420000   9.6050000   3.7160000  36.2210000  11.4770000
   2.6100000  34.1350000  11.8600000   1.5790000  33.2490000  10.1830000
   3.3560000  35.1980000  12.3060000   4.2980000  37.0580000  11.8370000
   2.3510000  33.3340000  12.5330000   3.6550000  35.2300000  13.3390000
   0.9680000  34.9510000  17.6070000   0.2310000  33.9010000  17.0380000
   1.3670000  35.9930000  16.7180000   1.3460000  35.0130000  19.0140000
  -0.0710000  33.9070000  15.6620000  -0.0990000  33.0870000  17.6580000
   1.1060000  35.9680000  15.3200000   2.1040000  37.0350000  17.2810000
   2.0760000  36.0810000  19.5140000   0.9160000  33.9570000  19.8840000
   0.3880000  34.8990000  14.8570000  -0.6790000  33.1090000  15.2360000
   1.4570000  36.7360000  14.6500000   2.4140000  37.1240000  18.6110000
   2.4620000  37.8310000  16.6270000   2.4290000  36.0940000  20.8990000
   1.2750000  33.9390000  21.2440000   0.3070000  33.1620000  19.4910000
   0.1770000  34.8450000  13.8080000   2.9240000  38.0100000  18.9770000
   2.0300000  35.0500000  21.7220000   3.1710000  37.1570000  21.4400000
   0.9850000  33.1200000  21.8980000   2.4350000  35.0760000  23.1440000
   3.5320000  37.1970000  22.7560000   3.4720000  37.9600000  20.7910000
   3.1910000  36.1410000  23.6500000   2.0850000  34.0730000  24.0300000
   4.1020000  38.0420000  23.1190000   3.6080000  36.2210000  24.9910000
   2.5010000  34.1350000  25.3750000   1.4700000  33.2490000  23.6980000
   3.2470000  35.1980000  25.8210000   4.1890000  37.0580000  25.3520000
   2.2420000  33.3340000  26.0480000   3.5460000  35.2300000  26.8530000
   0.8590000  34.9510000  31.1210000   0.1230000  33.9010000  30.5520000
   1.2580000  35.9930000  30.2320000   1.2370000  35.0130000  32.5280000
  -0.1790000  33.9070000  29.1770000  -0.2070000  33.0870000  31.1730000
   0.9970000  35.9680000  28.8350000   1.9960000  37.0350000  30.7960000
   1.9680000  36.0810000  33.0280000   0.8080000  33.9570000  33.3990000
   0.2790000  34.8990000  28.3710000  -0.7870000  33.1090000  28.7510000
   1.3490000  36.7360000  28.1640000   2.3060000  37.1240000  32.1250000
   2.3540000  37.8310000  30.1420000   2.3200000  36.0940000  34.4130000
   1.1670000  33.9390000  34.7580000   0.1990000  33.1620000  33.0050000
   0.0690000  34.8450000  27.3220000   2.8160000  38.0100000  32.4920000
   1.9210000  35.0500000  35.2370000   3.0620000  37.1570000  34.9540000
   0.8770000  33.1200000  35.4120000   2.3260000  35.0760000  36.6580000
   3.4230000  37.1970000  36.2700000   3.3630000  37.9600000  34.3050000
   3.0830000  36.1410000  37.1650000   1.9760000  34.0730000  37.5450000
   3.9930000  38.0420000  36.6340000   3.4990000  36.2210000  38.5060000
   2.3930000  34.1350000  38.8900000   1.3620000  33.2490000  37.2120000
   3.1390000  35.1980000  39.3350000   4.0810000  37.0580000  38.8670000
   2.1340000  33.3340000  39.5630000   3.4380000  35.2300000  40.3680000
   0.7510000  34.9510000  44.6360000   0.0140000  33.9010000  44.0670000
   1.1500000  35.9930000  43.7470000   1.1290000  35.0130000  46.0430000
  -0.2880000  33.9070000  42.6910000  -0.3160000  33.0870000  44.6870000
   0.8890000  35.9680000  42.3490000   1.8870000  37.0350000  44.3100000
   1.8590000  36.0810000  46.5430000   0.6990000  33.9570000  46.9130000
   0.1710000  34.8990000  41.8860000  -0.8960000  33.1090000  42.2650000
   1.2400000  36.7360000  41.6790000   2.1970000  37.1240000  45.6400000
   2.2450000  37.8310000  43.6560000   2.2120000  36.0940000  47.9280000
   1.0580000  33.9390000  48.2730000   0.0900000  33.1620000  46.5200000
  -0.0400000  34.8450000  40.8370000   2.7070000  38.0100000  46.0060000
   1.8130000  35.0500000  48.7510000   2.9540000  37.1570000  48.4690000
   0.7680000  33.1200000  48.9270000   2.2170000  35.0760000  50.1730000
   3.3150000  37.1970000  49.7850000   3.2550000  37.9600000  47.8200000
   2.9740000  36.1410000  50.6800000   1.8680000  34.0730000  51.0590000
   3.8850000  38.0420000  50.1480000   3.3910000  36.2210000  52.0200000
   2.2840000  34.1350000  52.4040000   1.2530000  33.2490000  50.7270000
   3.0300000  35.1980000  52.8500000   3.9720000  37.0580000  52.3810000
   2.0250000  33.3340000  53.0770000   3.3290000  35.2300000  53.8830000
   0.6420000  34.9510000  58.1500000  -0.0940000  33.9010000  57.5820000
   1.0410000  35.9930000  57.2610000   1.0200000  35.0130000  59.5570000
  -0.3960000  33.9070000  56.2060000  -0.4240000  33.0870000  58.2020000
   0.7800000  35.9680000  55.8640000   1.7790000  37.0350000  57.8250000
   1.7510000  36.0810000  60.0570000   0.5910000  33.9570000  60.4280000
   0.0620000  34.8990000  55.4000000  -1.0040000  33.1090000  55.7800000
   1.1320000  36.7360000  55.1930000   2.0890000  37.1240000  59.1550000
   2.1370000  37.8310000  57.1710000   2.1030000  36.0940000  61.4430000
   0.9500000  33.9390000  61.7870000  -0.0180000  33.1620000  60.0340000
  -0.1480000  34.8450000  54.3520000   2.5990000  38.0100000  59.5210000
   1.7040000  35.0500000  62.2660000   2.8450000  37.1570000  61.9830000
   0.6600000  33.1200000  62.4410000   2.1090000  35.0760000  63.6870000
   3.2060000  37.1970000  63.3000000   3.1460000  37.9600000  61.3340000
   2.8660000  36.1410000  64.1940000   1.7590000  34.0730000  64.5740000
   3.7760000  38.0420000  63.6630000   3.2820000  36.2210000  65.5350000
   2.1760000  34.1350000  65.9190000   1.1450000  33.2490000  64.2410000
   2.9220000  35.1980000  66.3650000   3.8640000  37.0580000  65.8960000
   1.9170000  33.3340000  66.5920000   3.2210000  35.2300000  67.3970000
   1.0760000  41.1050000   4.0920000   0.3400000  40.0550000   3.5230000
   1.4750000  42.1470000   3.2030000   1.4540000  41.1670000   5.4990000
   0.0380000  40.0610000   2.1470000   0.0100000  39.2410000   4.1440000
   1.2140000  42.1220000   1.8060000   2.2130000  43.1890000   3.7670000
   2.1850000  42.2350000   5.9990000   1.0250000  40.1110000   6.3690000
   0.4960000  41.0530000   1.3420000  -0.5700000  39.2630000   1.7220000
   1.5660000  42.8900000   1.1350000   2.5230000  43.2780000   5.0960000
   2.5710000  43.9850000   3.1120000   2.5370000  42.2480000   7.3840000
   1.3840000  40.0930000   7.7290000   0.4160000  39.3160000   5.9760000
   0.2860000  40.9990000   0.2930000   3.0330000  44.1640000   5.4630000
   2.1380000  41.2040000   8.2070000   3.2790000  43.3110000   7.9250000
   1.0940000  39.2740000   8.3830000   2.5430000  41.2300000   9.6290000
   3.6400000  43.3510000   9.2410000   3.5800000  44.1140000   7.2760000
   3.3000000  42.2950000  10.1360000   2.1930000  40.2270000  10.5160000
   4.2100000  44.1960000   9.6050000   3.7160000  42.3750000  11.4770000
   2.6100000  40.2890000  11.8600000   1.5790000  39.4030000  10.1830000
   3.3560000  41.3520000  12.3060000   4.2980000  43.2120000  11.8370000
   2.3510000  39.4880000  12.5330000   3.6550000  41.3840000  13.3390000
   0.9680000  41.1050000  17.6070000   0.2310000  40.0550000  17.0380000
   1.3670000  42.1470000  16.7180000   1.3460000  41.1670000  19.0140000
  -0.0710000  40.0610000  15.6620000  -0.0990000  39.2410000  17.6580000
   1.1060000  42.1220000  15.3200000   2.1040000  43.1890000  17.2810000
   2.0760000  42.2350000  19.5140000   0.9160000  40.1110000  19.8840000
   0.3880000  41.0530000  14.8570000  -0.6790000  39.2630000  15.2360000
   1.4570000  42.8900000  14.6500000   2.4140000  43.2780000  18.6110000
   2.4620000  43.9850000  16.6270000   2.4290000  42.2480000  20.8990000
   1.2750000  40.0930000  21.2440000   0.3070000  39.3160000  19.4910000
   0.1770000  40.9990000  13.8080000   2.9240000  44.1640000  18.9770000
   2.0300000  41.2040000  21.7220000   3.1710000  43.3110000  21.4400000
   0.9850000  39.2740000  21.8980000   2.4350000  41.2300000  23.1440000
   3.5320000  43.3510000  22.7560000   3.4720000  44.1140000  20.7910000
   3.1910000  42.2950000  23.6500000   2.0850000  40.2270000  24.0300000
   4.1020000  44.1960000  23.1190000   3.6080000  42.3750000  24.9910000
   2.5010000  40.2890000  25.3750000   1.4700000  39.4030000  23.6980000
   3.2470000  41.3520000  25.8210000   4.1890000  43.2120000  25.3520000
   2.2420000  39.4880000  26.0480000   3.5460000  41.3840000  26.8530000
   0.8590000  41.1050000  31.1210000   0.1230000  40.0550000  30.5520000
   1.2580000  42.1470000  30.2320000   1.2370000  41.1670000  32.5280000
  -0.1790000  40.0610000  29.1770000  -0.2070000  39.2410000  31.1730000
   0.9970000  42.1220000  28.8350000   1.9960000  43.1890000  30.7960000
   1.9680000  42.2350000  33.0280000   0.8080000  40.1110000  33.3990000
   0.2790000  41.0530000  28.3710000  -0.7870000  39.2630000  28.7510000
   1.3490000  42.8900000  28.1640000   2.3060000  43.2780000  32.1250000
   2.3540000  43.9850000  30.1420000   2.3200000  42.2480000  34.4130000
   1.1670000  40.0930000  34.7580000   0.1990000  39.3160000  33.0050000
   0.0690000  40.9990000  27.3220000   2.8160000  44.1640000  32.4920000
   1.9210000  41.2040000  35.2370000   3.0620000  43.3110000  34.9540000
   0.8770000  39.2740000  35.4120000   2.3260000  41.2300000  36.6580000
   3.4230000  43.3510000  36.2700000   3.3630000  44.1140000  34.3050000
   3.0830000  42.2950000  37.1650000   1.9760000  40.2270000  37.5450000
   3.9930000  44.1960000  36.6340000   3.4990000  42.3750000  38.5060000
   2.3930000  40.2890000  38.8900000   1.3620000  39.4030000  37.2120000
   3.1390000  41.3520000  39.3350000   4.0810000  43.2120000  38.8670000
   2.1340000  39.4880000  39.5630000   3.4380000  41.3840000  40.3680000
   0.7510000  41.1050000  44.6360000   0.0140000  40.0550000  44.0670000
   1.1500000  42.1470000  43.7470000   1.1290000  41.1670000  46.0430000
  -0.2880000  40.0610000  42.6910000  -0.3160000  39.2410000  44.6870000
   0.8890000  42.1220000  42.3490000   1.8870000  43.1890000  44.3100000
   1.8590000  42.2350000  46.5430000   0.6990000  40.1110000  46.9130000
   0.1710000  41.0530000  41.8860000  -0.8960000  39.2630000  42.2650000
   1.2400000  42.8900000  41.6790000   2.1970000  43.2780000  45.6400000
   2.2450000  43.9850000  43.6560000   2.2120000  42.2480000  47.9280000
   1.0580000  40.0930000  48.2730000   0.0900000  39.3160000  46.5200000
  -0.0400000  40.9990000  40.8370000   2.7070000  44.1640000  46.0060000
   1.8130000  41.2040000  48.7510000   2.9540000  43.3110000  48.4690000
   0.7680000  39.2740000  48.9270000   2.2170000  41.2300000  50.1730000
   3.3150000  43.3510000  49.7850000   3.2550000  44.1140000  47.8200000
   2.9740000  42.2950000  50.6800000   1.8680000  40.2270000  51.0590000
   3.8850000  44.1960000  50.1480000   3.3910000  42.3750000  52.0200000
   2.2840000  40.2890000  52.4040000   1.2530000  39.4030000  50.7270000
   3.0300000  41.3520000  52.8500000   3.9720000  43.2120000  52.3810000
   2.0250000  39.4880000  53.0770000   3.3290000  41.3840000  53.8830000
   0.6420000  41.1050000  58.1500000  -0.0940000  40.0550000  57.5820000
   1.0410000  42.1470000  57.2610000   1.0200000  41.1670000  59.5570000
  -0.3960000  40.0610000  56.2060000  -0.4240000  39.2410000  58.2020000
   0.7800000  42.1220000  55.8640000   1.7790000  43.1890000  57.8250000
   1.7510000  42.2350000  60.0570000   0.5910000  40.1110000  60.4280000
   0.0620000  41.0530000  55.4000000  -1.0040000  39.2630000  55.7800000
   1.1320000  42.8900000  55.1930000   2.0890000  43.2780000  59.1550000
   2.1370000  43.9850000  57.1710000   2.1030000  42.2480000  61.4430000
   0.9500000  40.0930000  61.7870000  -0.0180000  39.3160000  60.0340000
  -0.1480000  40.9990000  54.3520000   2.5990000  44.1640000  59.5210000
   1.7040000  41.2040000  62.2660000   2.8450000  43.3110000  61.9830000
   0.6600000  39.2740000  62.4410000   2.1090000  41.2300000  63.6870000
   3.2060000  43.3510000  63.3000000   3.1460000  44.1140000  61.3340000
   2.8660000  42.2950000  64.1940000   1.7590000  40.2270000  64.5740000
   3.7760000  44.1960000  63.6630000   3.2820000  42.3750000  65.5350000
   2.1760000  40.2890000  65.9190000   1.1450000  39.4030000  64.2410000
   2.9220000  41.3520000  66.3650000   3.8640000  43.2120000  65.8960000
   1.9170000  39.4880000  66.5920000   3.2210000  41.3840000  67.3970000
