Generated with MDTraj, t= 0.0
 1944
    1MOL    C00    1   0.793   0.941   0.567
    1MOL    C01    2   0.697   0.922   0.665
    1MOL    C02    3   0.911   0.863   0.580
    1MOL    C03    4   0.777   1.005   0.444
    1MOL    C04    5   0.715   0.855   0.785
    1MOL    H05    6   0.609   0.984   0.649
    1MOL    C06    7   0.929   0.795   0.701
    1MOL    C07    8   1.013   0.876   0.484
    1MOL    C08    9   0.876   1.017   0.345
    1MOL    H09   10   0.677   1.039   0.426
    1MOL    C0A   11   0.618   0.852   0.891
    1MOL    C0B   12   0.839   0.791   0.807
    1MOL    H0C   13   1.020   0.748   0.708
    1MOL    H0D   14   1.100   0.817   0.496
    1MOL    C0E   15   0.998   0.948   0.365
    1MOL    C0F   16   0.862   1.088   0.229
    1MOL    C0G   17   0.635   0.781   1.010
    1MOL    H0H   18   0.519   0.900   0.868
    1MOL    C0I   19   0.857   0.725   0.929
    1MOL    C0J   20   1.088   0.954   0.258
    1MOL    C0K   21   0.950   1.094   0.125
    1MOL    H0M   22   0.766   1.154   0.223
    1MOL    C0N   23   0.758   0.721   1.030
    1MOL    H0O   24   0.558   0.776   1.078
    1MOL    H0P   25   0.951   0.670   0.942
    1MOL    H0Q   26   1.180   0.889   0.269
    1MOL    C0R   27   1.070   1.024   0.138
    1MOL    C0S   28   0.930   1.169   0.006
    1MOL    H0T   29   0.771   0.650   1.119
    1MOL    C0U   30   1.169   1.047   0.039
    1MOL    C0V   31   1.031   1.195  -0.088
    1MOL    H0W   32   0.834   1.217  -0.004
    1MOL    C0X   33   1.157   1.139  -0.067
    1MOL    H0Y   34   1.258   0.989   0.042
    1MOL    H0Z   35   1.006   1.263  -0.174
    1MOL    H10   36   1.229   1.143  -0.140
    1MOL    C00   38   0.962   0.486   1.772
    1MOL    C01   39   1.061   0.499   1.672
    1MOL    C02   40   0.838   0.550   1.748
    1MOL    C03   41   0.979   0.418   1.892
    1MOL    C04   42   1.044   0.558   1.543
    1MOL    H05   43   1.160   0.449   1.684
    1MOL    C06   44   0.822   0.607   1.623
    1MOL    C07   45   0.736   0.529   1.847
    1MOL    C08   46   0.880   0.413   1.995
    1MOL    H09   47   1.073   0.375   1.917
    1MOL    C0A   48   1.140   0.557   1.439
    1MOL    C0B   49   0.916   0.617   1.519
    1MOL    H0C   50   0.728   0.653   1.599
    1MOL    H0D   51   0.640   0.570   1.826
    1MOL    C0E   52   0.758   0.470   1.974
    1MOL    C0F   53   0.903   0.349   2.119
    1MOL    C0G   54   1.110   0.618   1.317
    1MOL    H0H   55   1.227   0.495   1.451
    1MOL    C0I   56   0.894   0.674   1.393
    1MOL    C0J   57   0.668   0.467   2.080
    1MOL    C0K   58   0.806   0.340   2.224
    1MOL    H0M   59   0.994   0.291   2.127
    1MOL    C0N   60   0.989   0.681   1.291
    1MOL    H0O   61   1.189   0.608   1.237
    1MOL    H0P   62   0.798   0.724   1.368
    1MOL    H0Q   63   0.577   0.515   2.059
    1MOL    C0R   64   0.684   0.406   2.207
    1MOL    C0S   65   0.823   0.269   2.348
    1MOL    H0T   66   0.974   0.725   1.193
    1MOL    C0U   67   0.586   0.405   2.309
    1MOL    C0V   68   0.732   0.272   2.450
    1MOL    H0W   69   0.913   0.202   2.369
    1MOL    C0X   70   0.608   0.338   2.431
    1MOL    H0Y   71   0.494   0.461   2.306
    1MOL    H0Z   72   0.747   0.205   2.542
    1MOL    H10   73   0.538   0.339   2.513
    1MOL    C00   75   0.795   0.848   3.446
    1MOL    C01   76   0.697   0.851   3.547
    1MOL    C02   77   0.909   0.775   3.467
    1MOL    C03   78   0.775   0.908   3.321
    1MOL    C04   79   0.709   0.790   3.673
    1MOL    H05   80   0.607   0.910   3.527
    1MOL    C06   81   0.925   0.707   3.587
    1MOL    C07   82   1.010   0.787   3.370
    1MOL    C08   83   0.872   0.907   3.214
    1MOL    H09   84   0.684   0.961   3.292
    1MOL    C0A   85   0.623   0.804   3.785
    1MOL    C0B   86   0.830   0.716   3.692
    1MOL    H0C   87   1.015   0.652   3.603
    1MOL    H0D   88   1.099   0.733   3.384
    1MOL    C0E   89   0.992   0.846   3.244
    1MOL    C0F   90   0.855   0.966   3.085
    1MOL    C0G   91   0.644   0.742   3.912
    1MOL    H0H   92   0.533   0.866   3.781
    1MOL    C0I   93   0.849   0.658   3.819
    1MOL    C0J   94   1.088   0.851   3.142
    1MOL    C0K   95   0.959   0.970   2.980
    1MOL    H0M   96   0.762   1.026   3.072
    1MOL    C0N   97   0.758   0.668   3.929
    1MOL    H0O   98   0.575   0.755   3.992
    1MOL    H0P   99   0.941   0.603   3.829
    1MOL    H0Q  100   1.187   0.801   3.170
    1MOL    C0R  101   1.081   0.913   3.013
    1MOL    C0S  102   0.944   1.037   2.853
    1MOL    H0T  103   0.780   0.613   4.018
    1MOL    C0U  104   1.187   0.923   2.915
    1MOL    C0V  105   1.046   1.033   2.752
    1MOL    H0W  106   0.852   1.083   2.818
    1MOL    C0X  107   1.169   0.977   2.785
    1MOL    H0Y  108   1.282   0.880   2.938
    1MOL    H0Z  109   1.028   1.073   2.649
    1MOL    H10  110   1.257   0.972   2.713
    1MOL    C00  112   0.915   2.032   1.981
    1MOL    C01  113   0.820   2.036   2.087
    1MOL    C02  114   1.030   1.963   2.010
    1MOL    C03  115   0.909   2.089   1.857
    1MOL    C04  116   0.829   1.979   2.217
    1MOL    H05  117   0.721   2.081   2.060
    1MOL    C06  118   1.041   1.903   2.136
    1MOL    C07  119   1.133   1.954   1.915
    1MOL    C08  120   1.008   2.087   1.758
    1MOL    H09  121   0.811   2.129   1.842
    1MOL    C0A  122   0.732   1.984   2.320
    1MOL    C0B  123   0.948   1.908   2.242
    1MOL    H0C  124   1.131   1.849   2.149
    1MOL    H0D  125   1.231   1.918   1.937
    1MOL    C0E  126   1.126   2.018   1.786
    1MOL    C0F  127   0.998   2.154   1.632
    1MOL    C0G  128   0.755   1.932   2.447
    1MOL    H0H  129   0.646   2.042   2.312
    1MOL    C0I  130   0.962   1.843   2.370
    1MOL    C0J  131   1.227   2.025   1.683
    1MOL    C0K  132   1.096   2.158   1.532
    1MOL    H0M  133   0.907   2.210   1.622
    1MOL    C0N  134   0.866   1.856   2.471
    1MOL    H0O  135   0.677   1.937   2.522
    1MOL    H0P  136   1.046   1.780   2.379
    1MOL    H0Q  137   1.314   1.971   1.702
    1MOL    C0R  138   1.219   2.098   1.558
    1MOL    C0S  139   1.078   2.220   1.403
    1MOL    H0T  140   0.895   1.809   2.560
    1MOL    C0U  141   1.320   2.105   1.465
    1MOL    C0V  142   1.175   2.219   1.302
    1MOL    H0W  143   0.986   2.277   1.386
    1MOL    C0X  144   1.303   2.167   1.340
    1MOL    H0Y  145   1.409   2.049   1.490
    1MOL    H0Z  146   1.166   2.281   1.213
    1MOL    H10  147   1.379   2.167   1.267
    1MOL    C00  149   0.937   0.094   3.184
    1MOL    C01  150   1.036   0.100   3.084
    1MOL    C02  151   0.815   0.153   3.161
    1MOL    C03  152   0.954   0.025   3.307
    1MOL    C04  153   1.023   0.169   2.962
    1MOL    H05  154   1.134   0.054   3.109
    1MOL    C06  155   0.799   0.216   3.033
    1MOL    C07  156   0.724   0.149   3.273
    1MOL    C08  157   0.864   0.018   3.414
    1MOL    H09  158   1.050  -0.010   3.322
    1MOL    C0A  159   1.125   0.170   2.865
    1MOL    C0B  160   0.898   0.227   2.932
    1MOL    H0C  161   0.709   0.268   3.010
    1MOL    H0D  162   0.630   0.196   3.259
    1MOL    C0E  163   0.749   0.083   3.399
    1MOL    C0F  164   0.884  -0.058   3.530
    1MOL    C0G  165   1.115   0.233   2.745
    1MOL    H0H  166   1.220   0.114   2.881
    1MOL    C0I  167   0.891   0.294   2.809
    1MOL    C0J  168   0.664   0.081   3.512
    1MOL    C0K  169   0.798  -0.063   3.649
    1MOL    H0M  170   0.980  -0.110   3.537
    1MOL    C0N  171   0.993   0.297   2.711
    1MOL    H0O  172   1.193   0.226   2.672
    1MOL    H0P  173   0.794   0.341   2.788
    1MOL    H0Q  174   0.576   0.145   3.510
    1MOL    C0R  175   0.680   0.010   3.632
    1MOL    C0S  176   0.817  -0.131   3.778
    1MOL    H0T  177   0.975   0.340   2.609
    1MOL    C0U  178   0.590   0.011   3.745
    1MOL    C0V  179   0.735  -0.119   3.890
    1MOL    H0W  180   0.912  -0.190   3.800
    1MOL    C0X  181   0.617  -0.049   3.866
    1MOL    H0Y  182   0.488   0.051   3.735
    1MOL    H0Z  183   0.764  -0.166   3.983
    1MOL    H10  184   0.547  -0.035   3.950
    1MOL    C00  186   0.848   1.273   1.961
    1MOL    C01  187   0.753   1.283   2.066
    1MOL    C02  188   0.969   1.195   1.987
    1MOL    C03  189   0.840   1.343   1.840
    1MOL    C04  190   0.765   1.216   2.187
    1MOL    H05  191   0.665   1.343   2.046
    1MOL    C06  192   0.987   1.130   2.109
    1MOL    C07  193   1.068   1.180   1.881
    1MOL    C08  194   0.941   1.339   1.747
    1MOL    H09  195   0.758   1.416   1.817
    1MOL    C0A  196   0.680   1.232   2.297
    1MOL    C0B  197   0.886   1.138   2.211
    1MOL    H0C  198   1.076   1.067   2.118
    1MOL    H0D  199   1.158   1.124   1.900
    1MOL    C0E  200   1.054   1.257   1.764
    1MOL    C0F  201   0.926   1.408   1.623
    1MOL    C0G  202   0.681   1.166   2.414
    1MOL    H0H  203   0.592   1.305   2.274
    1MOL    C0I  204   0.893   1.068   2.336
    1MOL    C0J  205   1.150   1.247   1.656
    1MOL    C0K  206   1.018   1.408   1.519
    1MOL    H0M  207   0.838   1.469   1.610
    1MOL    C0N  208   0.794   1.074   2.431
    1MOL    H0O  209   0.605   1.187   2.497
    1MOL    H0P  210   0.978   1.005   2.355
    1MOL    H0Q  211   1.234   1.171   1.661
    1MOL    C0R  212   1.138   1.318   1.536
    1MOL    C0S  213   1.002   1.477   1.394
    1MOL    H0T  214   0.812   1.010   2.515
    1MOL    C0U  215   1.233   1.307   1.430
    1MOL    C0V  216   1.095   1.459   1.293
    1MOL    H0W  217   0.902   1.531   1.380
    1MOL    C0X  218   1.214   1.377   1.312
    1MOL    H0Y  219   1.321   1.246   1.441
    1MOL    H0Z  220   1.081   1.505   1.204
    1MOL    H10  221   1.281   1.364   1.235
    1MOL    C00  223   1.081   1.637   3.177
    1MOL    C01  224   1.178   1.636   3.074
    1MOL    C02  225   0.971   1.716   3.163
    1MOL    C03  226   1.103   1.566   3.305
    1MOL    C04  227   1.164   1.709   2.948
    1MOL    H05  228   1.269   1.571   3.081
    1MOL    C06  229   0.955   1.785   3.040
    1MOL    C07  230   0.877   1.715   3.269
    1MOL    C08  231   1.008   1.568   3.409
    1MOL    H09  232   1.192   1.508   3.310
    1MOL    C0A  233   1.259   1.702   2.841
    1MOL    C0B  234   1.045   1.785   2.930
    1MOL    H0C  235   0.873   1.861   3.034
    1MOL    H0D  236   0.790   1.769   3.254
    1MOL    C0E  237   0.889   1.643   3.385
    1MOL    C0F  238   1.023   1.499   3.528
    1MOL    C0G  239   1.248   1.771   2.720
    1MOL    H0H  240   1.344   1.641   2.849
    1MOL    C0I  241   1.031   1.843   2.802
    1MOL    C0J  242   0.800   1.637   3.493
    1MOL    C0K  243   0.921   1.483   3.634
    1MOL    H0M  244   1.118   1.457   3.560
    1MOL    C0N  245   1.131   1.849   2.702
    1MOL    H0O  246   1.331   1.778   2.650
    1MOL    H0P  247   0.939   1.902   2.781
    1MOL    H0Q  248   0.711   1.690   3.479
    1MOL    C0R  249   0.804   1.554   3.611
    1MOL    C0S  250   0.930   1.421   3.761
    1MOL    H0T  251   1.126   1.906   2.611
    1MOL    C0U  252   0.701   1.552   3.709
    1MOL    C0V  253   0.835   1.422   3.859
    1MOL    H0W  254   1.015   1.351   3.786
    1MOL    C0X  255   0.710   1.487   3.831
    1MOL    H0Y  256   0.602   1.599   3.683
    1MOL    H0Z  257   0.855   1.369   3.946
    1MOL    H10  258   0.635   1.480   3.913
    1MOL    C00  260   0.728   0.168   0.574
    1MOL    C01  261   0.630   0.149   0.680
    1MOL    C02  262   0.848   0.112   0.590
    1MOL    C03  263   0.709   0.247   0.452
    1MOL    C04  264   0.644   0.077   0.796
    1MOL    H05  265   0.549   0.211   0.669
    1MOL    C06  266   0.872   0.035   0.710
    1MOL    C07  267   0.940   0.123   0.485
    1MOL    C08  268   0.799   0.257   0.345
    1MOL    H09  269   0.614   0.287   0.446
    1MOL    C0A  270   0.546   0.061   0.903
    1MOL    C0B  271   0.772   0.018   0.812
    1MOL    H0C  272   0.963  -0.015   0.722
    1MOL    H0D  273   1.032   0.077   0.491
    1MOL    C0E  274   0.913   0.185   0.360
    1MOL    C0F  275   0.783   0.325   0.219
    1MOL    C0G  276   0.581  -0.016   1.019
    1MOL    H0H  277   0.445   0.105   0.890
    1MOL    C0I  278   0.798  -0.049   0.932
    1MOL    C0J  279   1.009   0.193   0.251
    1MOL    C0K  280   0.871   0.336   0.112
    1MOL    H0M  281   0.695   0.377   0.210
    1MOL    C0N  282   0.706  -0.072   1.035
    1MOL    H0O  283   0.501  -0.028   1.090
    1MOL    H0P  284   0.893  -0.091   0.946
    1MOL    H0Q  285   1.101   0.140   0.265
    1MOL    C0R  286   0.995   0.270   0.129
    1MOL    C0S  287   0.842   0.406  -0.008
    1MOL    H0T  288   0.721  -0.141   1.115
    1MOL    C0U  289   1.089   0.277   0.020
    1MOL    C0V  290   0.936   0.410  -0.114
    1MOL    H0W  291   0.743   0.452  -0.029
    1MOL    C0X  292   1.058   0.345  -0.100
    1MOL    H0Y  293   1.186   0.222   0.035
    1MOL    H0Z  294   0.914   0.472  -0.205
    1MOL    H10  295   1.137   0.332  -0.179
    1MOL    C00  297   1.068   1.723   0.376
    1MOL    C01  298   1.163   1.728   0.271
    1MOL    C02  299   0.947   1.786   0.356
    1MOL    C03  300   1.079   1.656   0.498
    1MOL    C04  301   1.151   1.800   0.149
    1MOL    H05  302   1.252   1.672   0.294
    1MOL    C06  303   0.935   1.862   0.230
    1MOL    C07  304   0.848   1.782   0.458
    1MOL    C08  305   0.983   1.649   0.602
    1MOL    H09  306   1.166   1.593   0.514
    1MOL    C0A  307   1.254   1.805   0.046
    1MOL    C0B  308   1.034   1.874   0.130
    1MOL    H0C  309   0.842   1.910   0.228
    1MOL    H0D  310   0.753   1.827   0.437
    1MOL    C0E  311   0.859   1.710   0.576
    1MOL    C0F  312   0.998   1.574   0.721
    1MOL    C0G  313   1.237   1.878  -0.072
    1MOL    H0H  314   1.348   1.751   0.077
    1MOL    C0I  315   1.017   1.941   0.009
    1MOL    C0J  316   0.766   1.703   0.683
    1MOL    C0K  317   0.905   1.564   0.823
    1MOL    H0M  318   1.084   1.513   0.732
    1MOL    C0N  319   1.115   1.939  -0.096
    1MOL    H0O  320   1.321   1.892  -0.136
    1MOL    H0P  321   0.925   1.988  -0.010
    1MOL    H0Q  322   0.678   1.761   0.670
    1MOL    C0R  323   0.778   1.622   0.801
    1MOL    C0S  324   0.925   1.500   0.946
    1MOL    H0T  325   1.091   2.000  -0.181
    1MOL    C0U  326   0.679   1.607   0.899
    1MOL    C0V  327   0.825   1.493   1.046
    1MOL    H0W  328   1.020   1.458   0.962
    1MOL    C0X  329   0.696   1.541   1.025
    1MOL    H0Y  330   0.574   1.650   0.873
    1MOL    H0Z  331   0.849   1.449   1.143
    1MOL    H10  332   0.614   1.543   1.088
    1MOL    C00  334   1.104   0.435   3.400
    1MOL    C01  335   1.011   0.373   3.489
    1MOL    C02  336   1.222   0.482   3.460
    1MOL    C03  337   1.090   0.449   3.259
    1MOL    C04  338   1.026   0.357   3.632
    1MOL    H05  339   0.919   0.321   3.445
    1MOL    C06  340   1.238   0.471   3.602
    1MOL    C07  341   1.321   0.531   3.366
    1MOL    C08  342   1.184   0.504   3.171
    1MOL    H09  343   0.998   0.415   3.206
    1MOL    C0A  344   0.938   0.295   3.720
    1MOL    C0B  345   1.145   0.407   3.687
    1MOL    H0C  346   1.320   0.514   3.652
    1MOL    H0D  347   1.420   0.549   3.407
    1MOL    C0E  348   1.307   0.544   3.227
    1MOL    C0F  349   1.169   0.512   3.033
    1MOL    C0G  350   0.961   0.271   3.857
    1MOL    H0H  351   0.845   0.252   3.689
    1MOL    C0I  352   1.166   0.396   3.825
    1MOL    C0J  353   1.401   0.599   3.136
    1MOL    C0K  354   1.258   0.575   2.942
    1MOL    H0M  355   1.070   0.487   2.994
    1MOL    C0N  356   1.078   0.323   3.911
    1MOL    H0O  357   0.878   0.222   3.909
    1MOL    H0P  358   1.254   0.445   3.872
    1MOL    H0Q  359   1.488   0.643   3.188
    1MOL    C0R  360   1.387   0.613   2.993
    1MOL    C0S  361   1.233   0.590   2.802
    1MOL    H0T  362   1.090   0.310   4.016
    1MOL    C0U  363   1.486   0.658   2.907
    1MOL    C0V  364   1.330   0.649   2.717
    1MOL    H0W  365   1.137   0.561   2.755
    1MOL    C0X  366   1.455   0.676   2.766
    1MOL    H0Y  367   1.579   0.695   2.955
    1MOL    H0Z  368   1.300   0.668   2.614
    1MOL    H10  369   1.539   0.713   2.700
    1MOL    C00  371   1.062   0.496   0.542
    1MOL    C01  372   0.966   0.437   0.626
    1MOL    C02  373   1.179   0.538   0.601
    1MOL    C03  374   1.047   0.507   0.402
    1MOL    C04  375   0.985   0.411   0.763
    1MOL    H05  376   0.871   0.404   0.580
    1MOL    C06  377   1.197   0.520   0.738
    1MOL    C07  378   1.270   0.595   0.515
    1MOL    C08  379   1.143   0.563   0.315
    1MOL    H09  380   0.965   0.464   0.354
    1MOL    C0A  381   0.881   0.357   0.851
    1MOL    C0B  382   1.108   0.454   0.822
    1MOL    H0C  383   1.293   0.548   0.777
    1MOL    H0D  384   1.360   0.622   0.563
    1MOL    C0E  385   1.259   0.615   0.375
    1MOL    C0F  386   1.135   0.572   0.172
    1MOL    C0G  387   0.900   0.336   0.990
    1MOL    H0H  388   0.792   0.332   0.810
    1MOL    C0I  389   1.123   0.434   0.964
    1MOL    C0J  390   1.359   0.672   0.292
    1MOL    C0K  391   1.233   0.637   0.087
    1MOL    H0M  392   1.044   0.530   0.118
    1MOL    C0N  393   1.018   0.378   1.044
    1MOL    H0O  394   0.817   0.294   1.048
    1MOL    H0P  395   1.211   0.475   1.019
    1MOL    H0Q  396   1.452   0.713   0.345
    1MOL    C0R  397   1.345   0.690   0.153
    1MOL    C0S  398   1.215   0.658  -0.051
    1MOL    H0T  399   1.039   0.382   1.155
    1MOL    C0U  400   1.444   0.757   0.077
    1MOL    C0V  401   1.310   0.740  -0.122
    1MOL    H0W  402   1.128   0.632  -0.102
    1MOL    C0X  403   1.424   0.787  -0.060
    1MOL    H0Y  404   1.539   0.801   0.106
    1MOL    H0Z  405   1.283   0.763  -0.227
    1MOL    H10  406   1.499   0.850  -0.105
    1MOL    C00  408   1.348   1.301   3.233
    1MOL    C01  409   1.442   1.360   3.145
    1MOL    C02  410   1.237   1.243   3.176
    1MOL    C03  411   1.360   1.291   3.372
    1MOL    C04  412   1.433   1.372   3.002
    1MOL    H05  413   1.532   1.405   3.191
    1MOL    C06  414   1.224   1.246   3.037
    1MOL    C07  415   1.144   1.187   3.268
    1MOL    C08  416   1.266   1.238   3.466
    1MOL    H09  417   1.452   1.340   3.403
    1MOL    C0A  418   1.525   1.438   2.913
    1MOL    C0B  419   1.317   1.309   2.950
    1MOL    H0C  420   1.141   1.194   3.007
    1MOL    H0D  421   1.060   1.148   3.226
    1MOL    C0E  422   1.154   1.179   3.409
    1MOL    C0F  423   1.280   1.227   3.606
    1MOL    C0G  424   1.512   1.426   2.777
    1MOL    H0H  425   1.610   1.492   2.966
    1MOL    C0I  426   1.308   1.305   2.812
    1MOL    C0J  427   1.064   1.117   3.500
    1MOL    C0K  428   1.193   1.160   3.696
    1MOL    H0M  429   1.371   1.273   3.632
    1MOL    C0N  430   1.405   1.361   2.724
    1MOL    H0O  431   1.591   1.475   2.718
    1MOL    H0P  432   1.215   1.258   2.767
    1MOL    H0Q  433   0.978   1.062   3.453
    1MOL    C0R  434   1.074   1.112   3.641
    1MOL    C0S  435   1.218   1.145   3.831
    1MOL    H0T  436   1.385   1.335   2.616
    1MOL    C0U  437   0.980   1.047   3.724
    1MOL    C0V  438   1.121   1.078   3.915
    1MOL    H0W  439   1.305   1.186   3.886
    1MOL    C0X  440   1.005   1.022   3.862
    1MOL    H0Y  441   0.888   1.011   3.678
    1MOL    H0Z  442   1.134   1.065   4.023
    1MOL    H10  443   0.937   0.969   3.927
    1MOL    C00  445   1.296   0.919   1.809
    1MOL    C01  446   1.395   0.984   1.728
    1MOL    C02  447   1.174   0.869   1.749
    1MOL    C03  448   1.312   0.912   1.950
    1MOL    C04  449   1.378   0.984   1.593
    1MOL    H05  450   1.491   1.020   1.774
    1MOL    C06  451   1.152   0.885   1.615
    1MOL    C07  452   1.078   0.814   1.837
    1MOL    C08  453   1.220   0.856   2.036
    1MOL    H09  454   1.402   0.947   1.997
    1MOL    C0A  455   1.470   1.032   1.495
    1MOL    C0B  456   1.256   0.937   1.535
    1MOL    H0C  457   1.055   0.848   1.569
    1MOL    H0D  458   0.983   0.764   1.793
    1MOL    C0E  459   1.102   0.800   1.974
    1MOL    C0F  460   1.233   0.847   2.185
    1MOL    C0G  461   1.452   1.027   1.361
    1MOL    H0H  462   1.560   1.068   1.552
    1MOL    C0I  463   1.230   0.933   1.391
    1MOL    C0J  464   1.003   0.735   2.059
    1MOL    C0K  465   1.133   0.786   2.257
    1MOL    H0M  466   1.317   0.885   2.234
    1MOL    C0N  467   1.325   0.985   1.310
    1MOL    H0O  468   1.525   1.060   1.292
    1MOL    H0P  469   1.135   0.893   1.351
    1MOL    H0Q  470   0.908   0.692   2.003
    1MOL    C0R  471   1.011   0.730   2.195
    1MOL    C0S  472   1.137   0.770   2.400
    1MOL    H0T  473   1.312   0.974   1.203
    1MOL    C0U  474   0.907   0.672   2.273
    1MOL    C0V  475   1.040   0.719   2.478
    1MOL    H0W  476   1.234   0.808   2.453
    1MOL    C0X  477   0.920   0.670   2.412
    1MOL    H0Y  478   0.819   0.633   2.228
    1MOL    H0Z  479   1.066   0.716   2.581
    1MOL    H10  480   0.832   0.632   2.460
    1MOL    C00  482   1.056   0.045   1.951
    1MOL    C01  483   0.962  -0.015   2.031
    1MOL    C02  484   1.174   0.089   2.004
    1MOL    C03  485   1.044   0.063   1.807
    1MOL    C04  486   0.971  -0.027   2.173
    1MOL    H05  487   0.876  -0.054   1.982
    1MOL    C06  488   1.186   0.076   2.148
    1MOL    C07  489   1.260   0.159   1.923
    1MOL    C08  490   1.143   0.123   1.725
    1MOL    H09  491   0.951   0.012   1.772
    1MOL    C0A  492   0.871  -0.086   2.253
    1MOL    C0B  493   1.086   0.024   2.227
    1MOL    H0C  494   1.274   0.104   2.204
    1MOL    H0D  495   1.351   0.191   1.955
    1MOL    C0E  496   1.254   0.170   1.787
    1MOL    C0F  497   1.132   0.120   1.587
    1MOL    C0G  498   0.887  -0.103   2.392
    1MOL    H0H  499   0.773  -0.126   2.207
    1MOL    C0I  500   1.103   0.010   2.369
    1MOL    C0J  501   1.350   0.233   1.707
    1MOL    C0K  502   1.226   0.186   1.505
    1MOL    H0M  503   1.046   0.094   1.541
    1MOL    C0N  504   1.004  -0.053   2.447
    1MOL    H0O  505   0.822  -0.163   2.460
    1MOL    H0P  506   1.195   0.052   2.415
    1MOL    H0Q  507   1.428   0.288   1.752
    1MOL    C0R  508   1.344   0.240   1.563
    1MOL    C0S  509   1.209   0.207   1.368
    1MOL    H0T  510   1.020  -0.069   2.553
    1MOL    C0U  511   1.441   0.286   1.472
    1MOL    C0V  512   1.307   0.244   1.281
    1MOL    H0W  513   1.119   0.159   1.323
    1MOL    C0X  514   1.430   0.281   1.328
    1MOL    H0Y  515   1.534   0.327   1.516
    1MOL    H0Z  516   1.285   0.253   1.175
    1MOL    H10  517   1.506   0.301   1.266
    1MOL    C00  519   1.379   1.681   1.796
    1MOL    C01  520   1.477   1.732   1.713
    1MOL    C02  521   1.255   1.641   1.741
    1MOL    C03  522   1.395   1.664   1.934
    1MOL    C04  523   1.465   1.756   1.575
    1MOL    H05  524   1.574   1.759   1.761
    1MOL    C06  525   1.246   1.667   1.594
    1MOL    C07  526   1.163   1.595   1.830
    1MOL    C08  527   1.304   1.621   2.028
    1MOL    H09  528   1.489   1.698   1.983
    1MOL    C0A  529   1.560   1.819   1.497
    1MOL    C0B  530   1.346   1.719   1.512
    1MOL    H0C  531   1.161   1.645   1.538
    1MOL    H0D  532   1.067   1.567   1.787
    1MOL    C0E  533   1.181   1.580   1.974
    1MOL    C0F  534   1.320   1.605   2.170
    1MOL    C0G  535   1.558   1.832   1.354
    1MOL    H0H  536   1.652   1.842   1.551
    1MOL    C0I  537   1.340   1.740   1.367
    1MOL    C0J  538   1.080   1.539   2.068
    1MOL    C0K  539   1.225   1.552   2.256
    1MOL    H0M  540   1.414   1.631   2.210
    1MOL    C0N  541   1.442   1.784   1.290
    1MOL    H0O  542   1.635   1.886   1.297
    1MOL    H0P  543   1.252   1.699   1.314
    1MOL    H0Q  544   0.984   1.517   2.026
    1MOL    C0R  545   1.095   1.515   2.204
    1MOL    C0S  546   1.244   1.534   2.397
    1MOL    H0T  547   1.439   1.796   1.177
    1MOL    C0U  548   0.999   1.460   2.293
    1MOL    C0V  549   1.150   1.474   2.480
    1MOL    H0W  550   1.343   1.560   2.439
    1MOL    C0X  551   1.017   1.445   2.434
    1MOL    H0Y  552   0.913   1.421   2.244
    1MOL    H0Z  553   1.176   1.440   2.588
    1MOL    H10  554   0.955   1.387   2.504
    1MOL    C00  556   1.369   1.382   0.378
    1MOL    C01  557   1.462   1.449   0.293
    1MOL    C02  558   1.243   1.354   0.319
    1MOL    C03  559   1.384   1.360   0.520
    1MOL    C04  560   1.453   1.481   0.155
    1MOL    H05  561   1.561   1.480   0.328
    1MOL    C06  562   1.229   1.389   0.181
    1MOL    C07  563   1.144   1.291   0.404
    1MOL    C08  564   1.281   1.306   0.604
    1MOL    H09  565   1.474   1.390   0.562
    1MOL    C0A  566   1.556   1.536   0.071
    1MOL    C0B  567   1.325   1.449   0.099
    1MOL    H0C  568   1.135   1.368   0.141
    1MOL    H0D  569   1.051   1.253   0.362
    1MOL    C0E  570   1.163   1.271   0.546
    1MOL    C0F  571   1.294   1.276   0.745
    1MOL    C0G  572   1.535   1.545  -0.066
    1MOL    H0H  573   1.655   1.556   0.113
    1MOL    C0I  574   1.307   1.467  -0.043
    1MOL    C0J  575   1.072   1.206   0.623
    1MOL    C0K  576   1.193   1.226   0.827
    1MOL    H0M  577   1.385   1.307   0.795
    1MOL    C0N  578   1.414   1.498  -0.125
    1MOL    H0O  579   1.614   1.576  -0.135
    1MOL    H0P  580   1.209   1.450  -0.089
    1MOL    H0Q  581   0.992   1.172   0.568
    1MOL    C0R  582   1.083   1.181   0.762
    1MOL    C0S  583   1.204   1.219   0.967
    1MOL    H0T  584   1.407   1.510  -0.235
    1MOL    C0U  585   0.987   1.108   0.843
    1MOL    C0V  586   1.103   1.162   1.043
    1MOL    H0W  587   1.281   1.270   1.019
    1MOL    C0X  588   0.993   1.097   0.982
    1MOL    H0Y  589   0.895   1.066   0.808
    1MOL    H0Z  590   1.105   1.174   1.148
    1MOL    H10  591   0.922   1.038   1.044
    1MOL    C00  593   1.429   2.089   3.227
    1MOL    C01  594   1.526   2.148   3.142
    1MOL    C02  595   1.314   2.054   3.167
    1MOL    C03  596   1.445   2.068   3.364
    1MOL    C04  597   1.524   2.160   2.999
    1MOL    H05  598   1.623   2.170   3.178
    1MOL    C06  599   1.308   2.060   3.022
    1MOL    C07  600   1.221   1.997   3.252
    1MOL    C08  601   1.351   2.017   3.453
    1MOL    H09  602   1.544   2.095   3.401
    1MOL    C0A  603   1.622   2.222   2.920
    1MOL    C0B  604   1.407   2.110   2.938
    1MOL    H0C  605   1.217   2.026   2.980
    1MOL    H0D  606   1.135   1.957   3.203
    1MOL    C0E  607   1.235   1.972   3.389
    1MOL    C0F  608   1.369   1.997   3.590
    1MOL    C0G  609   1.607   2.243   2.781
    1MOL    H0H  610   1.712   2.257   2.971
    1MOL    C0I  611   1.386   2.136   2.801
    1MOL    C0J  612   1.147   1.904   3.477
    1MOL    C0K  613   1.277   1.936   3.675
    1MOL    H0M  614   1.457   2.045   3.629
    1MOL    C0N  615   1.491   2.191   2.722
    1MOL    H0O  616   1.685   2.293   2.722
    1MOL    H0P  617   1.295   2.105   2.749
    1MOL    H0Q  618   1.061   1.859   3.427
    1MOL    C0R  619   1.152   1.891   3.618
    1MOL    C0S  620   1.291   1.923   3.812
    1MOL    H0T  621   1.489   2.201   2.612
    1MOL    C0U  622   1.058   1.830   3.702
    1MOL    C0V  623   1.192   1.874   3.896
    1MOL    H0W  624   1.385   1.944   3.858
    1MOL    C0X  625   1.076   1.826   3.836
    1MOL    H0Y  626   0.964   1.790   3.657
    1MOL    H0Z  627   1.208   1.877   4.008
    1MOL    H10  628   0.987   1.783   3.895
    1MOL    C00  630   1.222   2.052   0.539
    1MOL    C01  631   1.125   1.995   0.621
    1MOL    C02  632   1.342   2.085   0.602
    1MOL    C03  633   1.209   2.077   0.403
    1MOL    C04  634   1.132   1.961   0.761
    1MOL    H05  635   1.040   1.959   0.567
    1MOL    C06  636   1.348   2.072   0.740
    1MOL    C07  637   1.438   2.149   0.523
    1MOL    C08  638   1.310   2.133   0.325
    1MOL    H09  639   1.121   2.036   0.353
    1MOL    C0A  640   1.032   1.910   0.843
    1MOL    C0B  641   1.251   2.007   0.823
    1MOL    H0C  642   1.428   2.113   0.794
    1MOL    H0D  643   1.522   2.183   0.574
    1MOL    C0E  644   1.429   2.176   0.384
    1MOL    C0F  645   1.306   2.139   0.182
    1MOL    C0G  646   1.045   1.893   0.983
    1MOL    H0H  647   0.939   1.868   0.795
    1MOL    C0I  648   1.262   1.975   0.965
    1MOL    C0J  649   1.531   2.233   0.301
    1MOL    C0K  650   1.403   2.201   0.103
    1MOL    H0M  651   1.220   2.097   0.131
    1MOL    C0N  652   1.157   1.928   1.048
    1MOL    H0O  653   0.961   1.833   1.030
    1MOL    H0P  654   1.360   1.989   1.010
    1MOL    H0Q  655   1.619   2.268   0.349
    1MOL    C0R  656   1.521   2.247   0.160
    1MOL    C0S  657   1.386   2.219  -0.034
    1MOL    H0T  658   1.180   1.913   1.153
    1MOL    C0U  659   1.617   2.312   0.075
    1MOL    C0V  660   1.475   2.294  -0.116
    1MOL    H0W  661   1.287   2.175  -0.068
    1MOL    C0X  662   1.594   2.338  -0.058
    1MOL    H0Y  663   1.707   2.343   0.123
    1MOL    H0Z  664   1.454   2.300  -0.224
    1MOL    H10  665   1.651   2.400  -0.115
    1MOL    C00  667   0.462   0.508   0.545
    1MOL    C01  668   0.361   0.456   0.626
    1MOL    C02  669   0.583   0.548   0.600
    1MOL    C03  670   0.437   0.524   0.405
    1MOL    C04  671   0.376   0.425   0.764
    1MOL    H05  672   0.266   0.424   0.585
    1MOL    C06  673   0.603   0.513   0.739
    1MOL    C07  674   0.675   0.610   0.512
    1MOL    C08  675   0.531   0.585   0.316
    1MOL    H09  676   0.336   0.488   0.374
    1MOL    C0A  677   0.271   0.381   0.857
    1MOL    C0B  678   0.502   0.458   0.822
    1MOL    H0C  679   0.700   0.541   0.780
    1MOL    H0D  680   0.772   0.625   0.553
    1MOL    C0E  681   0.652   0.627   0.370
    1MOL    C0F  682   0.501   0.604   0.179
    1MOL    C0G  683   0.282   0.364   0.995
    1MOL    H0H  684   0.170   0.356   0.818
    1MOL    C0I  685   0.518   0.426   0.959
    1MOL    C0J  686   0.745   0.682   0.281
    1MOL    C0K  687   0.599   0.654   0.088
    1MOL    H0M  688   0.405   0.575   0.153
    1MOL    C0N  689   0.410   0.386   1.047
    1MOL    H0O  690   0.194   0.327   1.039
    1MOL    H0P  691   0.617   0.432   1.001
    1MOL    H0Q  692   0.833   0.723   0.322
    1MOL    C0R  693   0.719   0.702   0.143
    1MOL    C0S  694   0.574   0.670  -0.050
    1MOL    H0T  695   0.433   0.359   1.148
    1MOL    C0U  696   0.801   0.775   0.051
    1MOL    C0V  697   0.660   0.741  -0.141
    1MOL    H0W  698   0.484   0.631  -0.097
    1MOL    C0X  699   0.775   0.794  -0.087
    1MOL    H0Y  700   0.897   0.819   0.084
    1MOL    H0Z  701   0.623   0.763  -0.240
    1MOL    H10  702   0.838   0.858  -0.138
    1MOL    C00  704   0.524   1.266   0.524
    1MOL    C01  705   0.423   1.202   0.599
    1MOL    C02  706   0.638   1.319   0.587
    1MOL    C03  707   0.513   1.288   0.385
    1MOL    C04  708   0.434   1.186   0.735
    1MOL    H05  709   0.342   1.166   0.540
    1MOL    C06  710   0.652   1.299   0.723
    1MOL    C07  711   0.740   1.384   0.507
    1MOL    C08  712   0.611   1.364   0.308
    1MOL    H09  713   0.427   1.242   0.334
    1MOL    C0A  714   0.333   1.115   0.812
    1MOL    C0B  715   0.554   1.234   0.799
    1MOL    H0C  716   0.746   1.316   0.776
    1MOL    H0D  717   0.820   1.418   0.566
    1MOL    C0E  718   0.726   1.408   0.369
    1MOL    C0F  719   0.604   1.401   0.171
    1MOL    C0G  720   0.343   1.101   0.954
    1MOL    H0H  721   0.242   1.067   0.768
    1MOL    C0I  722   0.566   1.211   0.937
    1MOL    C0J  723   0.824   1.472   0.294
    1MOL    C0K  724   0.697   1.462   0.096
    1MOL    H0M  725   0.518   1.378   0.114
    1MOL    C0N  726   0.462   1.147   1.015
    1MOL    H0O  727   0.265   1.053   1.010
    1MOL    H0P  728   0.661   1.244   0.975
    1MOL    H0Q  729   0.912   1.516   0.339
    1MOL    C0R  730   0.818   1.500   0.157
    1MOL    C0S  731   0.685   1.491  -0.044
    1MOL    H0T  732   0.470   1.133   1.122
    1MOL    C0U  733   0.927   1.553   0.085
    1MOL    C0V  734   0.792   1.546  -0.113
    1MOL    H0W  735   0.596   1.468  -0.100
    1MOL    C0X  736   0.916   1.574  -0.054
    1MOL    H0Y  737   1.024   1.573   0.129
    1MOL    H0Z  738   0.782   1.577  -0.216
    1MOL    H10  739   1.005   1.609  -0.095
    1MOL    C00  741   0.592   2.038   0.569
    1MOL    C01  742   0.491   1.973   0.645
    1MOL    C02  743   0.704   2.076   0.631
    1MOL    C03  744   0.585   2.052   0.429
    1MOL    C04  745   0.500   1.953   0.788
    1MOL    H05  746   0.408   1.944   0.582
    1MOL    C06  747   0.714   2.055   0.772
    1MOL    C07  748   0.811   2.125   0.545
    1MOL    C08  749   0.678   2.119   0.347
    1MOL    H09  750   0.487   2.023   0.380
    1MOL    C0A  751   0.405   1.887   0.876
    1MOL    C0B  752   0.616   2.000   0.850
    1MOL    H0C  753   0.803   2.090   0.826
    1MOL    H0D  754   0.906   2.147   0.587
    1MOL    C0E  755   0.798   2.158   0.409
    1MOL    C0F  756   0.663   2.146   0.212
    1MOL    C0G  757   0.416   1.870   1.011
    1MOL    H0H  758   0.323   1.841   0.827
    1MOL    C0I  759   0.626   1.982   0.993
    1MOL    C0J  760   0.898   2.217   0.322
    1MOL    C0K  761   0.757   2.215   0.128
    1MOL    H0M  762   0.571   2.123   0.167
    1MOL    C0N  763   0.525   1.917   1.071
    1MOL    H0O  764   0.335   1.815   1.056
    1MOL    H0P  765   0.718   2.019   1.041
    1MOL    H0Q  766   0.995   2.236   0.372
    1MOL    C0R  767   0.877   2.248   0.182
    1MOL    C0S  768   0.731   2.250  -0.006
    1MOL    H0T  769   0.543   1.920   1.179
    1MOL    C0U  770   0.977   2.303   0.100
    1MOL    C0V  771   0.825   2.311  -0.090
    1MOL    H0W  772   0.640   2.228  -0.054
    1MOL    C0X  773   0.950   2.338  -0.032
    1MOL    H0Y  774   1.071   2.339   0.131
    1MOL    H0Z  775   0.810   2.324  -0.202
    1MOL    H10  776   1.029   2.385  -0.096
    1MOL    C00  778   0.461   0.805   1.961
    1MOL    C01  779   0.369   0.749   2.052
    1MOL    C02  780   0.585   0.834   2.019
    1MOL    C03  781   0.446   0.822   1.824
    1MOL    C04  782   0.392   0.725   2.191
    1MOL    H05  783   0.267   0.726   2.016
    1MOL    C06  784   0.605   0.818   2.156
    1MOL    C07  785   0.678   0.892   1.931
    1MOL    C08  786   0.545   0.867   1.736
    1MOL    H09  787   0.358   0.785   1.786
    1MOL    C0A  788   0.290   0.680   2.275
    1MOL    C0B  789   0.510   0.762   2.243
    1MOL    H0C  790   0.703   0.852   2.204
    1MOL    H0D  791   0.772   0.922   1.973
    1MOL    C0E  792   0.663   0.908   1.793
    1MOL    C0F  793   0.537   0.876   1.598
    1MOL    C0G  794   0.310   0.658   2.415
    1MOL    H0H  795   0.192   0.644   2.223
    1MOL    C0I  796   0.534   0.738   2.385
    1MOL    C0J  797   0.766   0.956   1.713
    1MOL    C0K  798   0.641   0.927   1.510
    1MOL    H0M  799   0.448   0.825   1.550
    1MOL    C0N  800   0.435   0.692   2.470
    1MOL    H0O  801   0.225   0.627   2.470
    1MOL    H0P  802   0.632   0.756   2.430
    1MOL    H0Q  803   0.866   0.984   1.759
    1MOL    C0R  804   0.759   0.976   1.575
    1MOL    C0S  805   0.628   0.933   1.370
    1MOL    H0T  806   0.458   0.680   2.575
    1MOL    C0U  807   0.861   1.031   1.489
    1MOL    C0V  808   0.732   0.986   1.293
    1MOL    H0W  809   0.543   0.892   1.318
    1MOL    C0X  810   0.844   1.043   1.350
    1MOL    H0Y  811   0.960   1.070   1.527
    1MOL    H0Z  812   0.721   0.988   1.186
    1MOL    H10  813   0.920   1.087   1.282
    1MOL    C00  815   0.536   1.195   3.404
    1MOL    C01  816   0.438   1.140   3.490
    1MOL    C02  817   0.662   1.226   3.456
    1MOL    C03  818   0.520   1.210   3.265
    1MOL    C04  819   0.453   1.125   3.628
    1MOL    H05  820   0.342   1.113   3.444
    1MOL    C06  821   0.678   1.206   3.596
    1MOL    C07  822   0.756   1.287   3.370
    1MOL    C08  823   0.612   1.267   3.174
    1MOL    H09  824   0.430   1.168   3.221
    1MOL    C0A  825   0.352   1.075   3.709
    1MOL    C0B  826   0.579   1.153   3.684
    1MOL    H0C  827   0.772   1.217   3.642
    1MOL    H0D  828   0.847   1.313   3.416
    1MOL    C0E  829   0.736   1.306   3.228
    1MOL    C0F  830   0.587   1.289   3.036
    1MOL    C0G  831   0.362   1.083   3.849
    1MOL    H0H  832   0.252   1.056   3.675
    1MOL    C0I  833   0.589   1.154   3.823
    1MOL    C0J  834   0.826   1.359   3.141
    1MOL    C0K  835   0.682   1.342   2.945
    1MOL    H0M  836   0.488   1.272   2.999
    1MOL    C0N  837   0.484   1.116   3.909
    1MOL    H0O  838   0.278   1.078   3.916
    1MOL    H0P  839   0.674   1.202   3.877
    1MOL    H0Q  840   0.926   1.384   3.186
    1MOL    C0R  841   0.811   1.368   3.000
    1MOL    C0S  842   0.659   1.387   2.816
    1MOL    H0T  843   0.487   1.123   4.018
    1MOL    C0U  844   0.912   1.422   2.915
    1MOL    C0V  845   0.760   1.440   2.735
    1MOL    H0W  846   0.562   1.363   2.763
    1MOL    C0X  847   0.890   1.462   2.787
    1MOL    H0Y  848   1.013   1.441   2.955
    1MOL    H0Z  849   0.743   1.464   2.631
    1MOL    H10  850   0.966   1.508   2.723
    1MOL    C00  852   1.487   1.622   3.410
    1MOL    C01  853   1.388   1.607   3.510
    1MOL    C02  854   1.613   1.560   3.428
    1MOL    C03  855   1.467   1.696   3.290
    1MOL    C04  856   1.409   1.544   3.636
    1MOL    H05  857   1.288   1.649   3.487
    1MOL    C06  858   1.631   1.487   3.548
    1MOL    C07  859   1.709   1.583   3.326
    1MOL    C08  860   1.566   1.709   3.188
    1MOL    H09  861   1.372   1.745   3.276
    1MOL    C0A  862   1.318   1.546   3.749
    1MOL    C0B  863   1.542   1.484   3.656
    1MOL    H0C  864   1.727   1.442   3.568
    1MOL    H0D  865   1.810   1.539   3.333
    1MOL    C0E  866   1.687   1.649   3.206
    1MOL    C0F  867   1.548   1.779   3.064
    1MOL    C0G  868   1.352   1.482   3.870
    1MOL    H0H  869   1.215   1.589   3.741
    1MOL    C0I  870   1.562   1.419   3.783
    1MOL    C0J  871   1.783   1.655   3.101
    1MOL    C0K  872   1.643   1.783   2.960
    1MOL    H0M  873   1.460   1.822   3.044
    1MOL    C0N  874   1.472   1.425   3.884
    1MOL    H0O  875   1.292   1.487   3.957
    1MOL    H0P  876   1.653   1.351   3.788
    1MOL    H0Q  877   1.873   1.598   3.103
    1MOL    C0R  878   1.767   1.720   2.975
    1MOL    C0S  879   1.613   1.853   2.845
    1MOL    H0T  880   1.506   1.378   3.980
    1MOL    C0U  881   1.850   1.724   2.867
    1MOL    C0V  882   1.706   1.861   2.742
    1MOL    H0W  883   1.511   1.901   2.828
    1MOL    C0X  884   1.825   1.791   2.747
    1MOL    H0Y  885   1.946   1.666   2.878
    1MOL    H0Z  886   1.676   1.925   2.662
    1MOL    H10  887   1.903   1.801   2.677
    1MOL    C00  889   0.767   1.704   1.797
    1MOL    C01  890   0.863   1.755   1.708
    1MOL    C02  891   0.647   1.660   1.743
    1MOL    C03  892   0.783   1.689   1.937
    1MOL    C04  893   0.850   1.767   1.570
    1MOL    H05  894   0.956   1.798   1.748
    1MOL    C06  895   0.641   1.657   1.601
    1MOL    C07  896   0.556   1.607   1.832
    1MOL    C08  897   0.683   1.644   2.032
    1MOL    H09  898   0.878   1.725   1.970
    1MOL    C0A  899   0.943   1.820   1.475
    1MOL    C0B  900   0.728   1.724   1.513
    1MOL    H0C  901   0.552   1.618   1.559
    1MOL    H0D  902   0.469   1.560   1.783
    1MOL    C0E  903   0.566   1.601   1.975
    1MOL    C0F  904   0.686   1.645   2.171
    1MOL    C0G  905   0.925   1.814   1.334
    1MOL    H0H  906   1.034   1.862   1.506
    1MOL    C0I  907   0.706   1.740   1.376
    1MOL    C0J  908   0.468   1.543   2.057
    1MOL    C0K  909   0.586   1.594   2.257
    1MOL    H0M  910   0.772   1.678   2.218
    1MOL    C0N  911   0.805   1.779   1.285
    1MOL    H0O  912   1.001   1.837   1.264
    1MOL    H0P  913   0.619   1.699   1.334
    1MOL    H0Q  914   0.379   1.501   2.007
    1MOL    C0R  915   0.474   1.538   2.195
    1MOL    C0S  916   0.589   1.587   2.394
    1MOL    H0T  917   0.788   1.787   1.180
    1MOL    C0U  918   0.370   1.484   2.273
    1MOL    C0V  919   0.494   1.522   2.477
    1MOL    H0W  920   0.672   1.628   2.454
    1MOL    C0X  921   0.378   1.468   2.414
    1MOL    H0Y  922   0.284   1.447   2.220
    1MOL    H0Z  923   0.499   1.505   2.583
    1MOL    H10  924   0.304   1.423   2.476
    1MOL    C00  926   1.438   0.863   3.429
    1MOL    C01  927   1.332   0.856   3.525
    1MOL    C02  928   1.553   0.799   3.449
    1MOL    C03  929   1.429   0.939   3.305
    1MOL    C04  930   1.356   0.791   3.652
    1MOL    H05  931   1.237   0.916   3.509
    1MOL    C06  932   1.577   0.744   3.575
    1MOL    C07  933   1.653   0.803   3.347
    1MOL    C08  934   1.524   0.948   3.202
    1MOL    H09  935   1.338   0.986   3.294
    1MOL    C0A  936   1.258   0.780   3.762
    1MOL    C0B  937   1.483   0.737   3.676
    1MOL    H0C  938   1.677   0.701   3.595
    1MOL    H0D  939   1.742   0.755   3.368
    1MOL    C0E  940   1.642   0.875   3.227
    1MOL    C0F  941   1.513   1.015   3.077
    1MOL    C0G  942   1.289   0.723   3.887
    1MOL    H0H  943   1.152   0.809   3.743
    1MOL    C0I  944   1.508   0.675   3.797
    1MOL    C0J  945   1.741   0.882   3.131
    1MOL    C0K  946   1.604   1.006   2.970
    1MOL    H0M  947   1.423   1.072   3.070
    1MOL    C0N  948   1.417   0.674   3.901
    1MOL    H0O  949   1.217   0.725   3.967
    1MOL    H0P  950   1.603   0.624   3.809
    1MOL    H0Q  951   1.843   0.842   3.146
    1MOL    C0R  952   1.730   0.939   3.000
    1MOL    C0S  953   1.585   1.064   2.843
    1MOL    H0T  954   1.453   0.635   3.993
    1MOL    C0U  955   1.827   0.938   2.897
    1MOL    C0V  956   1.678   1.051   2.742
    1MOL    H0W  957   1.485   1.107   2.813
    1MOL    C0X  958   1.799   0.985   2.772
    1MOL    H0Y  959   1.934   0.905   2.923
    1MOL    H0Z  960   1.660   1.100   2.649
    1MOL    H10  961   1.879   0.984   2.694
    1MOL    C00  963   1.761   2.034   1.777
    1MOL    C01  964   1.855   2.028   1.671
    1MOL    C02  965   1.643   2.101   1.752
    1MOL    C03  966   1.782   1.976   1.901
    1MOL    C04  967   1.840   2.087   1.545
    1MOL    H05  968   1.943   1.967   1.692
    1MOL    C06  969   1.631   2.172   1.630
    1MOL    C07  970   1.548   2.102   1.856
    1MOL    C08  971   1.682   1.968   2.003
    1MOL    H09  972   1.879   1.933   1.931
    1MOL    C0A  973   1.934   2.077   1.441
    1MOL    C0B  974   1.724   2.164   1.520
    1MOL    H0C  975   1.543   2.225   1.609
    1MOL    H0D  976   1.454   2.155   1.842
    1MOL    C0E  977   1.565   2.037   1.985
    1MOL    C0F  978   1.695   1.904   2.127
    1MOL    C0G  979   1.912   2.129   1.315
    1MOL    H0H  980   2.021   2.025   1.461
    1MOL    C0I  981   1.705   2.223   1.395
    1MOL    C0J  982   1.470   2.044   2.088
    1MOL    C0K  983   1.598   1.901   2.228
    1MOL    H0M  984   1.792   1.867   2.151
    1MOL    C0N  985   1.790   2.195   1.290
    1MOL    H0O  986   1.974   2.102   1.228
    1MOL    H0P  987   1.635   2.305   1.392
    1MOL    H0Q  988   1.377   2.093   2.070
    1MOL    C0R  989   1.481   1.980   2.211
    1MOL    C0S  990   1.610   1.833   2.353
    1MOL    H0T  991   1.770   2.229   1.190
    1MOL    C0U  992   1.385   1.986   2.316
    1MOL    C0V  993   1.518   1.851   2.463
    1MOL    H0W  994   1.700   1.781   2.385
    1MOL    C0X  995   1.411   1.933   2.444
    1MOL    H0Y  996   1.299   2.049   2.296
    1MOL    H0Z  997   1.536   1.805   2.559
    1MOL    H10  998   1.335   1.946   2.519
    1MOL    C00 1000   1.384   0.090   3.421
    1MOL    C01 1001   1.283   0.082   3.518
    1MOL    C02 1002   1.509   0.023   3.445
    1MOL    C03 1003   1.372   0.158   3.296
    1MOL    C04 1004   1.282   0.004   3.637
    1MOL    H05 1005   1.196   0.135   3.502
    1MOL    C06 1006   1.510  -0.044   3.571
    1MOL    C07 1007   1.602   0.030   3.336
    1MOL    C08 1008   1.467   0.166   3.194
    1MOL    H09 1009   1.281   0.221   3.293
    1MOL    C0A 1010   1.174  -0.019   3.723
    1MOL    C0B 1011   1.408  -0.062   3.664
    1MOL    H0C 1012   1.603  -0.088   3.590
    1MOL    H0D 1013   1.689  -0.025   3.336
    1MOL    C0E 1014   1.587   0.097   3.211
    1MOL    C0F 1015   1.445   0.237   3.072
    1MOL    C0G 1016   1.193  -0.089   3.846
    1MOL    H0H 1017   1.075   0.028   3.696
    1MOL    C0I 1018   1.421  -0.130   3.785
    1MOL    C0J 1019   1.680   0.095   3.103
    1MOL    C0K 1020   1.536   0.238   2.961
    1MOL    H0M 1021   1.342   0.286   3.072
    1MOL    C0N 1022   1.315  -0.145   3.875
    1MOL    H0O 1023   1.107  -0.096   3.927
    1MOL    H0P 1024   1.514  -0.182   3.805
    1MOL    H0Q 1025   1.775   0.050   3.110
    1MOL    C0R 1026   1.655   0.163   2.977
    1MOL    C0S 1027   1.518   0.305   2.839
    1MOL    H0T 1028   1.316  -0.200   3.974
    1MOL    C0U 1029   1.745   0.155   2.866
    1MOL    C0V 1030   1.609   0.297   2.733
    1MOL    H0W 1031   1.430   0.364   2.819
    1MOL    C0X 1032   1.722   0.223   2.744
    1MOL    H0Y 1033   1.838   0.094   2.868
    1MOL    H0Z 1034   1.595   0.342   2.636
    1MOL    H10 1035   1.781   0.203   2.652
    1MOL    C00 1037   1.470   1.245   2.014
    1MOL    C01 1038   1.378   1.248   2.122
    1MOL    C02 1039   1.584   1.167   2.037
    1MOL    C03 1040   1.459   1.316   1.890
    1MOL    C04 1041   1.382   1.176   2.240
    1MOL    H05 1042   1.293   1.308   2.109
    1MOL    C06 1043   1.598   1.095   2.161
    1MOL    C07 1044   1.689   1.178   1.939
    1MOL    C08 1045   1.562   1.322   1.792
    1MOL    H09 1046   1.365   1.363   1.879
    1MOL    C0A 1047   1.281   1.177   2.334
    1MOL    C0B 1048   1.501   1.108   2.267
    1MOL    H0C 1049   1.689   1.046   2.170
    1MOL    H0D 1050   1.781   1.134   1.971
    1MOL    C0E 1051   1.675   1.247   1.814
    1MOL    C0F 1052   1.547   1.378   1.664
    1MOL    C0G 1053   1.286   1.111   2.454
    1MOL    H0H 1054   1.192   1.243   2.315
    1MOL    C0I 1055   1.511   1.050   2.393
    1MOL    C0J 1056   1.772   1.249   1.717
    1MOL    C0K 1057   1.641   1.383   1.558
    1MOL    H0M 1058   1.451   1.426   1.645
    1MOL    C0N 1059   1.404   1.045   2.487
    1MOL    H0O 1060   1.207   1.116   2.528
    1MOL    H0P 1061   1.608   0.998   2.414
    1MOL    H0Q 1062   1.860   1.197   1.749
    1MOL    C0R 1063   1.761   1.313   1.591
    1MOL    C0S 1064   1.635   1.451   1.433
    1MOL    H0T 1065   1.426   0.992   2.583
    1MOL    C0U 1066   1.862   1.314   1.492
    1MOL    C0V 1067   1.735   1.449   1.337
    1MOL    H0W 1068   1.548   1.514   1.424
    1MOL    C0X 1069   1.850   1.380   1.368
    1MOL    H0Y 1070   1.959   1.270   1.504
    1MOL    H0Z 1071   1.731   1.508   1.242
    1MOL    H10 1072   1.939   1.390   1.306
    1MOL    C00 1074   1.395   0.916   0.574
    1MOL    C01 1075   1.304   0.916   0.684
    1MOL    C02 1076   1.519   0.852   0.588
    1MOL    C03 1077   1.383   0.990   0.460
    1MOL    C04 1078   1.321   0.839   0.807
    1MOL    H05 1079   1.209   0.964   0.675
    1MOL    C06 1080   1.540   0.776   0.706
    1MOL    C07 1081   1.616   0.873   0.489
    1MOL    C08 1082   1.477   1.009   0.356
    1MOL    H09 1083   1.288   1.042   0.446
    1MOL    C0A 1084   1.235   0.830   0.919
    1MOL    C0B 1085   1.446   0.765   0.818
    1MOL    H0C 1086   1.635   0.727   0.716
    1MOL    H0D 1087   1.712   0.830   0.515
    1MOL    C0E 1088   1.597   0.941   0.366
    1MOL    C0F 1089   1.467   1.097   0.241
    1MOL    C0G 1090   1.270   0.770   1.041
    1MOL    H0H 1091   1.138   0.881   0.910
    1MOL    C0I 1092   1.481   0.711   0.947
    1MOL    C0J 1093   1.689   0.944   0.261
    1MOL    C0K 1094   1.557   1.099   0.137
    1MOL    H0M 1095   1.384   1.160   0.222
    1MOL    C0N 1096   1.394   0.706   1.051
    1MOL    H0O 1097   1.196   0.782   1.115
    1MOL    H0P 1098   1.580   0.672   0.962
    1MOL    H0Q 1099   1.778   0.891   0.282
    1MOL    C0R 1100   1.677   1.021   0.141
    1MOL    C0S 1101   1.538   1.178   0.022
    1MOL    H0T 1102   1.413   0.668   1.154
    1MOL    C0U 1103   1.770   1.026   0.035
    1MOL    C0V 1104   1.629   1.174  -0.092
    1MOL    H0W 1105   1.452   1.235   0.017
    1MOL    C0X 1106   1.750   1.102  -0.080
    1MOL    H0Y 1107   1.870   0.981   0.030
    1MOL    H0Z 1108   1.600   1.232  -0.178
    1MOL    H10 1109   1.827   1.111  -0.157
    1MOL    C00 1111   1.360   0.174   0.573
    1MOL    C01 1112   1.263   0.177   0.677
    1MOL    C02 1113   1.478   0.106   0.601
    1MOL    C03 1114   1.347   0.241   0.448
    1MOL    C04 1115   1.272   0.113   0.802
    1MOL    H05 1116   1.170   0.239   0.672
    1MOL    C06 1117   1.485   0.035   0.725
    1MOL    C07 1118   1.575   0.109   0.499
    1MOL    C08 1119   1.440   0.235   0.344
    1MOL    H09 1120   1.259   0.307   0.426
    1MOL    C0A 1121   1.169   0.111   0.900
    1MOL    C0B 1122   1.390   0.041   0.829
    1MOL    H0C 1123   1.572  -0.033   0.729
    1MOL    H0D 1124   1.667   0.063   0.523
    1MOL    C0E 1125   1.558   0.168   0.368
    1MOL    C0F 1126   1.423   0.302   0.216
    1MOL    C0G 1127   1.179   0.028   1.013
    1MOL    H0H 1128   1.072   0.161   0.882
    1MOL    C0I 1129   1.397  -0.033   0.953
    1MOL    C0J 1130   1.648   0.160   0.258
    1MOL    C0K 1131   1.519   0.300   0.116
    1MOL    H0M 1132   1.336   0.359   0.210
    1MOL    C0N 1133   1.293  -0.048   1.037
    1MOL    H0O 1134   1.094   0.019   1.079
    1MOL    H0P 1135   1.481  -0.098   0.962
    1MOL    H0Q 1136   1.745   0.106   0.275
    1MOL    C0R 1137   1.640   0.228   0.137
    1MOL    C0S 1138   1.502   0.366  -0.013
    1MOL    H0T 1139   1.309  -0.116   1.122
    1MOL    C0U 1140   1.740   0.232   0.042
    1MOL    C0V 1141   1.608   0.361  -0.108
    1MOL    H0W 1142   1.410   0.424  -0.037
    1MOL    C0X 1143   1.726   0.291  -0.087
    1MOL    H0Y 1144   1.827   0.171   0.061
    1MOL    H0Z 1145   1.598   0.404  -0.206
    1MOL    H10 1146   1.803   0.286  -0.164
    1MOL    C00 1148   0.602   1.977   3.366
    1MOL    C01 1149   0.502   1.923   3.447
    1MOL    C02 1150   0.724   2.014   3.424
    1MOL    C03 1151   0.592   1.985   3.227
    1MOL    C04 1152   0.511   1.917   3.593
    1MOL    H05 1153   0.407   1.889   3.397
    1MOL    C06 1154   0.737   2.006   3.565
    1MOL    C07 1155   0.825   2.062   3.339
    1MOL    C08 1156   0.694   2.039   3.142
    1MOL    H09 1157   0.493   1.960   3.190
    1MOL    C0A 1158   0.403   1.879   3.675
    1MOL    C0B 1159   0.634   1.956   3.652
    1MOL    H0C 1160   0.837   2.040   3.600
    1MOL    H0D 1161   0.912   2.085   3.395
    1MOL    C0E 1162   0.812   2.080   3.204
    1MOL    C0F 1163   0.675   2.051   3.007
    1MOL    C0G 1164   0.416   1.883   3.819
    1MOL    H0H 1165   0.308   1.839   3.632
    1MOL    C0I 1166   0.637   1.958   3.793
    1MOL    C0J 1167   0.908   2.133   3.116
    1MOL    C0K 1168   0.775   2.109   2.920
    1MOL    H0M 1169   0.576   2.033   2.968
    1MOL    C0N 1170   0.535   1.919   3.879
    1MOL    H0O 1171   0.327   1.848   3.878
    1MOL    H0P 1172   0.732   2.000   3.833
    1MOL    H0Q 1173   1.001   2.161   3.171
    1MOL    C0R 1174   0.898   2.146   2.977
    1MOL    C0S 1175   0.752   2.125   2.781
    1MOL    H0T 1176   0.535   1.905   3.986
    1MOL    C0U 1177   0.997   2.200   2.891
    1MOL    C0V 1178   0.854   2.178   2.700
    1MOL    H0W 1179   0.655   2.102   2.735
    1MOL    C0X 1180   0.977   2.216   2.750
    1MOL    H0Y 1181   1.101   2.232   2.926
    1MOL    H0Z 1182   0.833   2.197   2.592
    1MOL    H10 1183   1.058   2.271   2.688
    1MOL    C00 1185   1.615   0.480   1.771
    1MOL    C01 1186   1.712   0.484   1.663
    1MOL    C02 1187   1.497   0.555   1.751
    1MOL    C03 1188   1.624   0.414   1.894
    1MOL    C04 1189   1.699   0.559   1.538
    1MOL    H05 1190   1.803   0.428   1.682
    1MOL    C06 1191   1.481   0.629   1.631
    1MOL    C07 1192   1.401   0.553   1.853
    1MOL    C08 1193   1.525   0.412   1.995
    1MOL    H09 1194   1.719   0.366   1.925
    1MOL    C0A 1195   1.791   0.560   1.433
    1MOL    C0B 1196   1.579   0.638   1.528
    1MOL    H0C 1197   1.390   0.680   1.610
    1MOL    H0D 1198   1.317   0.617   1.837
    1MOL    C0E 1199   1.409   0.477   1.970
    1MOL    C0F 1200   1.538   0.354   2.122
    1MOL    C0G 1201   1.776   0.638   1.318
    1MOL    H0H 1202   1.887   0.498   1.443
    1MOL    C0I 1203   1.567   0.708   1.401
    1MOL    C0J 1204   1.310   0.477   2.071
    1MOL    C0K 1205   1.442   0.355   2.226
    1MOL    H0M 1206   1.637   0.323   2.155
    1MOL    C0N 1207   1.666   0.717   1.307
    1MOL    H0O 1208   1.853   0.623   1.247
    1MOL    H0P 1209   1.465   0.755   1.386
    1MOL    H0Q 1210   1.225   0.524   2.037
    1MOL    C0R 1211   1.318   0.423   2.202
    1MOL    C0S 1212   1.459   0.301   2.350
    1MOL    H0T 1213   1.643   0.759   1.210
    1MOL    C0U 1214   1.224   0.422   2.308
    1MOL    C0V 1215   1.369   0.316   2.457
    1MOL    H0W 1216   1.549   0.247   2.371
    1MOL    C0X 1217   1.245   0.373   2.431
    1MOL    H0Y 1218   1.124   0.472   2.288
    1MOL    H0Z 1219   1.399   0.291   2.559
    1MOL    H10 1220   1.170   0.394   2.507
    1MOL    C00 1222   1.481   1.711   0.577
    1MOL    C01 1223   1.386   1.700   0.681
    1MOL    C02 1224   1.600   1.644   0.594
    1MOL    C03 1225   1.461   1.783   0.455
    1MOL    C04 1226   1.398   1.627   0.799
    1MOL    H05 1227   1.294   1.753   0.667
    1MOL    C06 1228   1.612   1.568   0.715
    1MOL    C07 1229   1.697   1.653   0.496
    1MOL    C08 1230   1.565   1.795   0.359
    1MOL    H09 1231   1.368   1.832   0.446
    1MOL    C0A 1232   1.304   1.613   0.901
    1MOL    C0B 1233   1.519   1.552   0.819
    1MOL    H0C 1234   1.705   1.517   0.743
    1MOL    H0D 1235   1.792   1.604   0.524
    1MOL    C0E 1236   1.687   1.728   0.377
    1MOL    C0F 1237   1.561   1.869   0.241
    1MOL    C0G 1238   1.329   1.550   1.025
    1MOL    H0H 1239   1.211   1.669   0.903
    1MOL    C0I 1240   1.541   1.482   0.936
    1MOL    C0J 1241   1.783   1.735   0.276
    1MOL    C0K 1242   1.656   1.873   0.136
    1MOL    H0M 1243   1.470   1.927   0.236
    1MOL    C0N 1244   1.453   1.487   1.046
    1MOL    H0O 1245   1.256   1.552   1.100
    1MOL    H0P 1246   1.635   1.425   0.950
    1MOL    H0Q 1247   1.877   1.677   0.296
    1MOL    C0R 1248   1.772   1.805   0.157
    1MOL    C0S 1249   1.646   1.945   0.016
    1MOL    H0T 1250   1.481   1.444   1.141
    1MOL    C0U 1251   1.879   1.810   0.058
    1MOL    C0V 1252   1.747   1.952  -0.080
    1MOL    H0W 1253   1.549   2.003  -0.000
    1MOL    C0X 1254   1.869   1.886  -0.057
    1MOL    H0Y 1255   1.970   1.756   0.074
    1MOL    H0Z 1256   1.735   2.015  -0.179
    1MOL    H10 1257   1.942   1.893  -0.131
    1MOL    C00 1259   0.610   0.139   1.779
    1MOL    C01 1260   0.699   0.200   1.693
    1MOL    C02 1261   0.495   0.086   1.724
    1MOL    C03 1262   0.625   0.139   1.921
    1MOL    C04 1263   0.692   0.207   1.552
    1MOL    H05 1264   0.783   0.252   1.740
    1MOL    C06 1265   0.480   0.100   1.587
    1MOL    C07 1266   0.404   0.027   1.815
    1MOL    C08 1267   0.530   0.082   2.007
    1MOL    H09 1268   0.707   0.192   1.959
    1MOL    C0A 1269   0.785   0.268   1.465
    1MOL    C0B 1270   0.571   0.157   1.493
    1MOL    H0C 1271   0.388   0.060   1.552
    1MOL    H0D 1272   0.315  -0.006   1.770
    1MOL    C0E 1273   0.420   0.018   1.954
    1MOL    C0F 1274   0.534   0.091   2.151
    1MOL    C0G 1275   0.770   0.264   1.327
    1MOL    H0H 1276   0.879   0.317   1.504
    1MOL    C0I 1277   0.551   0.167   1.354
    1MOL    C0J 1278   0.328  -0.037   2.040
    1MOL    C0K 1279   0.448   0.029   2.241
    1MOL    H0M 1280   0.630   0.135   2.190
    1MOL    C0N 1281   0.643   0.226   1.275
    1MOL    H0O 1282   0.843   0.314   1.269
    1MOL    H0P 1283   0.459   0.123   1.309
    1MOL    H0Q 1284   0.235  -0.081   2.005
    1MOL    C0R 1285   0.333  -0.032   2.183
    1MOL    C0S 1286   0.456   0.037   2.380
    1MOL    H0T 1287   0.612   0.236   1.167
    1MOL    C0U 1288   0.229  -0.080   2.269
    1MOL    C0V 1289   0.356  -0.014   2.468
    1MOL    H0W 1290   0.545   0.086   2.416
    1MOL    C0X 1291   0.245  -0.079   2.409
    1MOL    H0Y 1292   0.145  -0.132   2.231
    1MOL    H0Z 1293   0.368  -0.015   2.572
    1MOL    H10 1294   0.163  -0.123   2.463
    1MOL    C00 1296   0.466   0.403   3.425
    1MOL    C01 1297   0.378   0.342   3.523
    1MOL    C02 1298   0.590   0.448   3.478
    1MOL    C03 1299   0.445   0.424   3.285
    1MOL    C04 1300   0.397   0.334   3.660
    1MOL    H05 1301   0.290   0.301   3.477
    1MOL    C06 1302   0.612   0.435   3.619
    1MOL    C07 1303   0.677   0.519   3.387
    1MOL    C08 1304   0.542   0.476   3.194
    1MOL    H09 1305   0.356   0.401   3.238
    1MOL    C0A 1306   0.301   0.284   3.753
    1MOL    C0B 1307   0.514   0.387   3.712
    1MOL    H0C 1308   0.701   0.483   3.657
    1MOL    H0D 1309   0.766   0.565   3.431
    1MOL    C0E 1310   0.657   0.526   3.246
    1MOL    C0F 1311   0.518   0.480   3.056
    1MOL    C0G 1312   0.319   0.280   3.895
    1MOL    H0H 1313   0.204   0.239   3.719
    1MOL    C0I 1314   0.529   0.376   3.854
    1MOL    C0J 1315   0.745   0.584   3.156
    1MOL    C0K 1316   0.607   0.536   2.960
    1MOL    H0M 1317   0.431   0.432   3.029
    1MOL    C0N 1318   0.434   0.325   3.943
    1MOL    H0O 1319   0.232   0.252   3.952
    1MOL    H0P 1320   0.614   0.412   3.900
    1MOL    H0Q 1321   0.834   0.614   3.197
    1MOL    C0R 1322   0.728   0.592   3.014
    1MOL    C0S 1323   0.582   0.551   2.820
    1MOL    H0T 1324   0.442   0.324   4.055
    1MOL    C0U 1325   0.825   0.644   2.927
    1MOL    C0V 1326   0.684   0.609   2.735
    1MOL    H0W 1327   0.488   0.520   2.767
    1MOL    C0X 1328   0.800   0.663   2.789
    1MOL    H0Y 1329   0.918   0.671   2.967
    1MOL    H0Z 1330   0.673   0.613   2.626
    1MOL    H10 1331   0.869   0.709   2.722
    1MOL    C00 1333   1.791   1.214   3.383
    1MOL    C01 1334   1.690   1.163   3.466
    1MOL    C02 1335   1.914   1.246   3.439
    1MOL    C03 1336   1.777   1.230   3.241
    1MOL    C04 1337   1.709   1.131   3.606
    1MOL    H05 1338   1.600   1.137   3.425
    1MOL    C06 1339   1.936   1.220   3.576
    1MOL    C07 1340   2.006   1.309   3.349
    1MOL    C08 1341   1.868   1.287   3.159
    1MOL    H09 1342   1.682   1.201   3.197
    1MOL    C0A 1343   1.622   1.067   3.694
    1MOL    C0B 1344   1.838   1.162   3.662
    1MOL    H0C 1345   2.023   1.267   3.617
    1MOL    H0D 1346   2.095   1.336   3.399
    1MOL    C0E 1347   1.988   1.327   3.213
    1MOL    C0F 1348   1.852   1.308   3.023
    1MOL    C0G 1349   1.648   1.046   3.834
    1MOL    H0H 1350   1.520   1.031   3.663
    1MOL    C0I 1351   1.867   1.134   3.796
    1MOL    C0J 1352   2.080   1.384   3.124
    1MOL    C0K 1353   1.945   1.357   2.932
    1MOL    H0M 1354   1.767   1.276   2.975
    1MOL    C0N 1355   1.770   1.079   3.883
    1MOL    H0O 1356   1.572   0.997   3.903
    1MOL    H0P 1357   1.972   1.142   3.827
    1MOL    H0Q 1358   2.173   1.412   3.168
    1MOL    C0R 1359   2.068   1.405   2.981
    1MOL    C0S 1360   1.930   1.361   2.789
    1MOL    H0T 1361   1.795   1.049   3.984
    1MOL    C0U 1362   2.173   1.446   2.893
    1MOL    C0V 1363   2.033   1.405   2.703
    1MOL    H0W 1364   1.837   1.328   2.736
    1MOL    C0X 1365   2.151   1.446   2.753
    1MOL    H0Y 1366   2.267   1.479   2.933
    1MOL    H0Z 1367   2.024   1.403   2.587
    1MOL    H10 1368   2.242   1.474   2.697
    1MOL    C00 1370   1.762   0.807   1.960
    1MOL    C01 1371   1.660   0.759   2.043
    1MOL    C02 1372   1.883   0.849   2.013
    1MOL    C03 1373   1.749   0.820   1.820
    1MOL    C04 1374   1.664   0.746   2.187
    1MOL    H05 1375   1.563   0.740   1.992
    1MOL    C06 1376   1.885   0.840   2.158
    1MOL    C07 1377   1.974   0.911   1.921
    1MOL    C08 1378   1.835   0.885   1.733
    1MOL    H09 1379   1.658   0.777   1.774
    1MOL    C0A 1380   1.564   0.686   2.273
    1MOL    C0B 1381   1.781   0.798   2.247
    1MOL    H0C 1382   1.972   0.874   2.213
    1MOL    H0D 1383   2.062   0.948   1.977
    1MOL    C0E 1384   1.952   0.933   1.786
    1MOL    C0F 1385   1.822   0.900   1.596
    1MOL    C0G 1386   1.586   0.672   2.415
    1MOL    H0H 1387   1.481   0.638   2.237
    1MOL    C0I 1388   1.795   0.791   2.386
    1MOL    C0J 1389   2.047   0.988   1.697
    1MOL    C0K 1390   1.922   0.956   1.502
    1MOL    H0M 1391   1.733   0.864   1.544
    1MOL    C0N 1392   1.704   0.719   2.467
    1MOL    H0O 1393   1.509   0.626   2.471
    1MOL    H0P 1394   1.884   0.834   2.435
    1MOL    H0Q 1395   2.136   1.029   1.743
    1MOL    C0R 1396   2.044   0.994   1.556
    1MOL    C0S 1397   1.906   0.973   1.360
    1MOL    H0T 1398   1.726   0.697   2.568
    1MOL    C0U 1399   2.144   1.053   1.473
    1MOL    C0V 1400   2.007   1.029   1.278
    1MOL    H0W 1401   1.813   0.937   1.311
    1MOL    C0X 1402   2.128   1.076   1.333
    1MOL    H0Y 1403   2.233   1.095   1.527
    1MOL    H0Z 1404   1.979   1.036   1.177
    1MOL    H10 1405   2.211   1.114   1.270
    1MOL    C00 1407   0.137   1.709   1.791
    1MOL    C01 1408   0.230   1.757   1.696
    1MOL    C02 1409   0.020   1.656   1.745
    1MOL    C03 1410   0.146   1.709   1.930
    1MOL    C04 1411   0.208   1.772   1.563
    1MOL    H05 1412   0.322   1.798   1.731
    1MOL    C06 1413   0.004   1.652   1.606
    1MOL    C07 1414  -0.076   1.595   1.830
    1MOL    C08 1415   0.049   1.656   2.024
    1MOL    H09 1416   0.221   1.760   1.980
    1MOL    C0A 1417   0.299   1.832   1.476
    1MOL    C0B 1418   0.091   1.709   1.512
    1MOL    H0C 1419  -0.080   1.609   1.563
    1MOL    H0D 1420  -0.167   1.550   1.802
    1MOL    C0E 1421  -0.065   1.598   1.971
    1MOL    C0F 1422   0.056   1.644   2.165
    1MOL    C0G 1423   0.275   1.835   1.337
    1MOL    H0H 1424   0.399   1.879   1.512
    1MOL    C0I 1425   0.068   1.715   1.376
    1MOL    C0J 1426  -0.171   1.550   2.056
    1MOL    C0K 1427  -0.034   1.580   2.250
    1MOL    H0M 1428   0.137   1.700   2.208
    1MOL    C0N 1429   0.157   1.772   1.291
    1MOL    H0O 1430   0.348   1.878   1.279
    1MOL    H0P 1431  -0.027   1.672   1.342
    1MOL    H0Q 1432  -0.256   1.496   2.009
    1MOL    C0R 1433  -0.154   1.539   2.197
    1MOL    C0S 1434  -0.011   1.570   2.387
    1MOL    H0T 1435   0.149   1.754   1.181
    1MOL    C0U 1436  -0.241   1.468   2.290
    1MOL    C0V 1437  -0.102   1.509   2.480
    1MOL    H0W 1438   0.083   1.601   2.430
    1MOL    C0X 1439  -0.214   1.448   2.429
    1MOL    H0Y 1440  -0.335   1.409   2.256
    1MOL    H0Z 1441  -0.078   1.498   2.587
    1MOL    H10 1442  -0.276   1.387   2.485
    1MOL    C00 1444  -0.042   1.965   3.404
    1MOL    C01 1445  -0.142   1.908   3.489
    1MOL    C02 1446   0.073   2.014   3.462
    1MOL    C03 1447  -0.054   1.982   3.266
    1MOL    C04 1448  -0.126   1.881   3.625
    1MOL    H05 1449  -0.241   1.885   3.448
    1MOL    C06 1450   0.084   1.998   3.603
    1MOL    C07 1451   0.170   2.074   3.375
    1MOL    C08 1452   0.038   2.039   3.180
    1MOL    H09 1453  -0.147   1.940   3.225
    1MOL    C0A 1454  -0.214   1.812   3.712
    1MOL    C0B 1455  -0.006   1.929   3.683
    1MOL    H0C 1456   0.173   2.042   3.642
    1MOL    H0D 1457   0.249   2.111   3.422
    1MOL    C0E 1458   0.152   2.089   3.235
    1MOL    C0F 1459   0.030   2.047   3.035
    1MOL    C0G 1460  -0.201   1.806   3.854
    1MOL    H0H 1461  -0.307   1.775   3.656
    1MOL    C0I 1462   0.014   1.900   3.823
    1MOL    C0J 1463   0.247   2.156   3.154
    1MOL    C0K 1464   0.128   2.108   2.953
    1MOL    H0M 1465  -0.064   2.013   2.998
    1MOL    C0N 1466  -0.086   1.853   3.910
    1MOL    H0O 1467  -0.270   1.762   3.922
    1MOL    H0P 1468   0.109   1.931   3.871
    1MOL    H0Q 1469   0.332   2.203   3.211
    1MOL    C0R 1470   0.245   2.158   3.013
    1MOL    C0S 1471   0.120   2.119   2.810
    1MOL    H0T 1472  -0.072   1.834   4.015
    1MOL    C0U 1473   0.351   2.204   2.931
    1MOL    C0V 1474   0.224   2.174   2.736
    1MOL    H0W 1475   0.029   2.088   2.753
    1MOL    C0X 1476   0.337   2.218   2.795
    1MOL    H0Y 1477   0.443   2.236   2.981
    1MOL    H0Z 1478   0.220   2.182   2.621
    1MOL    H10 1479   0.418   2.261   2.738
    1MOL    C00 1481   1.744   0.423   3.378
    1MOL    C01 1482   1.643   0.375   3.464
    1MOL    C02 1483   1.860   0.465   3.442
    1MOL    C03 1484   1.724   0.436   3.241
    1MOL    C04 1485   1.649   0.357   3.604
    1MOL    H05 1486   1.560   0.330   3.422
    1MOL    C06 1487   1.865   0.462   3.583
    1MOL    C07 1488   1.954   0.516   3.355
    1MOL    C08 1489   1.821   0.486   3.155
    1MOL    H09 1490   1.636   0.407   3.187
    1MOL    C0A 1491   1.545   0.304   3.681
    1MOL    C0B 1492   1.765   0.407   3.664
    1MOL    H0C 1493   1.964   0.488   3.631
    1MOL    H0D 1494   2.046   0.546   3.400
    1MOL    C0E 1495   1.942   0.524   3.214
    1MOL    C0F 1496   1.805   0.508   3.016
    1MOL    C0G 1497   1.546   0.308   3.819
    1MOL    H0H 1498   1.462   0.264   3.635
    1MOL    C0I 1499   1.775   0.403   3.807
    1MOL    C0J 1500   2.038   0.585   3.130
    1MOL    C0K 1501   1.908   0.566   2.931
    1MOL    H0M 1502   1.714   0.485   2.957
    1MOL    C0N 1503   1.659   0.367   3.886
    1MOL    H0O 1504   1.456   0.269   3.870
    1MOL    H0P 1505   1.861   0.434   3.862
    1MOL    H0Q 1506   2.127   0.632   3.183
    1MOL    C0R 1507   2.030   0.609   2.989
    1MOL    C0S 1508   1.887   0.586   2.797
    1MOL    H0T 1509   1.658   0.379   3.998
    1MOL    C0U 1510   2.126   0.674   2.909
    1MOL    C0V 1511   1.977   0.674   2.724
    1MOL    H0W 1512   1.794   0.560   2.752
    1MOL    C0X 1513   2.099   0.710   2.779
    1MOL    H0Y 1514   2.222   0.704   2.945
    1MOL    H0Z 1515   1.956   0.704   2.624
    1MOL    H10 1516   2.178   0.761   2.717
    1MOL    C00 1518   1.715   0.492   0.540
    1MOL    C01 1519   1.624   0.440   0.631
    1MOL    C02 1520   1.833   0.545   0.595
    1MOL    C03 1521   1.699   0.509   0.402
    1MOL    C04 1522   1.648   0.423   0.772
    1MOL    H05 1523   1.526   0.406   0.586
    1MOL    C06 1524   1.856   0.535   0.736
    1MOL    C07 1525   1.929   0.604   0.506
    1MOL    C08 1526   1.788   0.573   0.311
    1MOL    H09 1527   1.610   0.476   0.343
    1MOL    C0A 1528   1.557   0.366   0.860
    1MOL    C0B 1529   1.768   0.470   0.827
    1MOL    H0C 1530   1.949   0.575   0.775
    1MOL    H0D 1531   2.021   0.641   0.546
    1MOL    C0E 1532   1.909   0.618   0.366
    1MOL    C0F 1533   1.771   0.593   0.173
    1MOL    C0G 1534   1.577   0.342   0.996
    1MOL    H0H 1535   1.467   0.323   0.814
    1MOL    C0I 1536   1.790   0.456   0.969
    1MOL    C0J 1537   2.006   0.679   0.281
    1MOL    C0K 1538   1.861   0.655   0.088
    1MOL    H0M 1539   1.674   0.576   0.141
    1MOL    C0N 1540   1.697   0.386   1.051
    1MOL    H0O 1541   1.515   0.280   1.058
    1MOL    H0P 1542   1.890   0.482   1.000
    1MOL    H0Q 1543   2.106   0.719   0.315
    1MOL    C0R 1544   1.984   0.697   0.142
    1MOL    C0S 1545   1.834   0.677  -0.046
    1MOL    H0T 1546   1.719   0.367   1.152
    1MOL    C0U 1547   2.078   0.752   0.052
    1MOL    C0V 1548   1.924   0.741  -0.135
    1MOL    H0W 1549   1.733   0.652  -0.089
    1MOL    C0X 1550   2.045   0.774  -0.084
    1MOL    H0Y 1551   2.164   0.797   0.098
    1MOL    H0Z 1552   1.898   0.752  -0.239
    1MOL    H10 1553   2.122   0.824  -0.146
    1MOL    C00 1555   1.751   1.250   0.576
    1MOL    C01 1556   1.661   1.179   0.662
    1MOL    C02 1557   1.870   1.300   0.633
    1MOL    C03 1558   1.734   1.280   0.437
    1MOL    C04 1559   1.671   1.171   0.800
    1MOL    H05 1560   1.574   1.135   0.610
    1MOL    C06 1561   1.883   1.296   0.773
    1MOL    C07 1562   1.967   1.362   0.548
    1MOL    C08 1563   1.829   1.335   0.353
    1MOL    H09 1564   1.644   1.255   0.383
    1MOL    C0A 1565   1.580   1.101   0.887
    1MOL    C0B 1566   1.786   1.232   0.859
    1MOL    H0C 1567   1.977   1.337   0.811
    1MOL    H0D 1568   2.066   1.397   0.580
    1MOL    C0E 1569   1.950   1.375   0.407
    1MOL    C0F 1570   1.812   1.347   0.213
    1MOL    C0G 1571   1.600   1.091   1.027
    1MOL    H0H 1572   1.500   1.051   0.837
    1MOL    C0I 1573   1.800   1.224   0.999
    1MOL    C0J 1574   2.041   1.434   0.316
    1MOL    C0K 1575   1.900   1.410   0.119
    1MOL    H0M 1576   1.717   1.316   0.175
    1MOL    C0N 1577   1.711   1.154   1.090
    1MOL    H0O 1578   1.536   1.026   1.087
    1MOL    H0P 1579   1.883   1.272   1.046
    1MOL    H0Q 1580   2.127   1.472   0.370
    1MOL    C0R 1581   2.022   1.452   0.175
    1MOL    C0S 1582   1.880   1.436  -0.019
    1MOL    H0T 1583   1.733   1.154   1.192
    1MOL    C0U 1584   2.112   1.511   0.085
    1MOL    C0V 1585   1.970   1.500  -0.109
    1MOL    H0W 1586   1.780   1.406  -0.050
    1MOL    C0X 1587   2.086   1.542  -0.048
    1MOL    H0Y 1588   2.205   1.554   0.122
    1MOL    H0Z 1589   1.938   1.519  -0.211
    1MOL    H10 1590   2.157   1.602  -0.102
    1MOL    C00 1592   1.887   0.149   1.805
    1MOL    C01 1593   1.987   0.186   1.708
    1MOL    C02 1594   1.767   0.107   1.750
    1MOL    C03 1595   1.903   0.133   1.944
    1MOL    C04 1596   1.971   0.193   1.569
    1MOL    H05 1597   2.078   0.227   1.749
    1MOL    C06 1598   1.754   0.106   1.609
    1MOL    C07 1599   1.663   0.063   1.835
    1MOL    C08 1600   1.801   0.087   2.031
    1MOL    H09 1601   2.004   0.163   1.980
    1MOL    C0A 1602   2.067   0.243   1.480
    1MOL    C0B 1603   1.850   0.145   1.516
    1MOL    H0C 1604   1.661   0.078   1.572
    1MOL    H0D 1605   1.573   0.024   1.799
    1MOL    C0E 1606   1.677   0.055   1.978
    1MOL    C0F 1607   1.817   0.081   2.170
    1MOL    C0G 1608   2.054   0.225   1.338
    1MOL    H0H 1609   2.158   0.281   1.520
    1MOL    C0I 1610   1.832   0.139   1.369
    1MOL    C0J 1611   1.581   0.009   2.067
    1MOL    C0K 1612   1.717   0.043   2.260
    1MOL    H0M 1613   1.910   0.097   2.216
    1MOL    C0N 1614   1.934   0.182   1.283
    1MOL    H0O 1615   2.132   0.253   1.275
    1MOL    H0P 1616   1.745   0.108   1.315
    1MOL    H0Q 1617   1.488  -0.024   2.027
    1MOL    C0R 1618   1.593  -0.001   2.204
    1MOL    C0S 1619   1.731   0.038   2.400
    1MOL    H0T 1620   1.927   0.173   1.174
    1MOL    C0U 1621   1.498  -0.062   2.295
    1MOL    C0V 1622   1.633  -0.014   2.484
    1MOL    H0W 1623   1.820   0.086   2.444
    1MOL    C0X 1624   1.519  -0.073   2.435
    1MOL    H0Y 1625   1.401  -0.095   2.252
    1MOL    H0Z 1626   1.651  -0.007   2.597
    1MOL    H10 1627   1.443  -0.131   2.498
    1MOL    C00 1629  -0.063   2.049   0.547
    1MOL    C01 1630  -0.166   1.993   0.631
    1MOL    C02 1631   0.062   2.067   0.605
    1MOL    C03 1632  -0.085   2.072   0.405
    1MOL    C04 1633  -0.149   1.962   0.768
    1MOL    H05 1634  -0.259   1.974   0.590
    1MOL    C06 1635   0.081   2.026   0.739
    1MOL    C07 1636   0.160   2.129   0.521
    1MOL    C08 1637   0.022   2.114   0.328
    1MOL    H09 1638  -0.173   2.052   0.357
    1MOL    C0A 1639  -0.244   1.901   0.850
    1MOL    C0B 1640  -0.020   1.989   0.826
    1MOL    H0C 1641   0.177   2.031   0.781
    1MOL    H0D 1642   0.252   2.145   0.566
    1MOL    C0E 1643   0.144   2.152   0.384
    1MOL    C0F 1644   0.008   2.136   0.190
    1MOL    C0G 1645  -0.218   1.882   0.985
    1MOL    H0H 1646  -0.340   1.851   0.817
    1MOL    C0I 1647  -0.010   1.985   0.966
    1MOL    C0J 1648   0.242   2.207   0.295
    1MOL    C0K 1649   0.108   2.190   0.105
    1MOL    H0M 1650  -0.083   2.100   0.145
    1MOL    C0N 1651  -0.106   1.929   1.048
    1MOL    H0O 1652  -0.298   1.844   1.050
    1MOL    H0P 1653   0.090   2.014   1.002
    1MOL    H0Q 1654   0.327   2.241   0.350
    1MOL    C0R 1655   0.229   2.229   0.161
    1MOL    C0S 1656   0.089   2.214  -0.035
    1MOL    H0T 1657  -0.091   1.916   1.155
    1MOL    C0U 1658   0.330   2.286   0.084
    1MOL    C0V 1659   0.196   2.267  -0.118
    1MOL    H0W 1660  -0.005   2.182  -0.084
    1MOL    C0X 1661   0.313   2.309  -0.055
    1MOL    H0Y 1662   0.426   2.320   0.126
    1MOL    H0Z 1663   0.172   2.282  -0.225
    1MOL    H10 1664   0.391   2.358  -0.108
    1MOL    C00 1666   0.426   1.245   1.801
    1MOL    C01 1667   0.530   1.246   1.697
    1MOL    C02 1668   0.317   1.311   1.775
    1MOL    C03 1669   0.429   1.180   1.929
    1MOL    C04 1670   0.524   1.307   1.569
    1MOL    H05 1671   0.619   1.194   1.728
    1MOL    C06 1672   0.305   1.373   1.649
    1MOL    C07 1673   0.210   1.311   1.870
    1MOL    C08 1674   0.333   1.180   2.032
    1MOL    H09 1675   0.519   1.123   1.945
    1MOL    C0A 1676   0.616   1.306   1.462
    1MOL    C0B 1677   0.402   1.379   1.546
    1MOL    H0C 1678   0.213   1.430   1.635
    1MOL    H0D 1679   0.123   1.361   1.832
    1MOL    C0E 1680   0.215   1.253   2.001
    1MOL    C0F 1681   0.339   1.110   2.156
    1MOL    C0G 1682   0.606   1.373   1.337
    1MOL    H0H 1683   0.709   1.257   1.459
    1MOL    C0I 1684   0.386   1.444   1.417
    1MOL    C0J 1685   0.116   1.250   2.101
    1MOL    C0K 1686   0.238   1.111   2.253
    1MOL    H0M 1687   0.431   1.052   2.177
    1MOL    C0N 1688   0.487   1.443   1.314
    1MOL    H0O 1689   0.677   1.358   1.260
    1MOL    H0P 1690   0.289   1.491   1.390
    1MOL    H0Q 1691   0.022   1.306   2.086
    1MOL    C0R 1692   0.116   1.179   2.226
    1MOL    C0S 1693   0.256   1.038   2.374
    1MOL    H0T 1694   0.467   1.480   1.217
    1MOL    C0U 1695   0.020   1.171   2.329
    1MOL    C0V 1696   0.155   1.036   2.473
    1MOL    H0W 1697   0.345   0.982   2.397
    1MOL    C0X 1698   0.034   1.100   2.449
    1MOL    H0Y 1699  -0.076   1.220   2.313
    1MOL    H0Z 1700   0.184   0.987   2.574
    1MOL    H10 1701  -0.049   1.104   2.514
    1MOL    C00 1703   0.344   0.939   0.366
    1MOL    C01 1704   0.445   0.953   0.268
    1MOL    C02 1705   0.221   1.000   0.343
    1MOL    C03 1706   0.354   0.864   0.485
    1MOL    C04 1707   0.438   1.029   0.150
    1MOL    H05 1708   0.530   0.889   0.270
    1MOL    C06 1709   0.212   1.071   0.218
    1MOL    C07 1710   0.123   0.992   0.449
    1MOL    C08 1711   0.257   0.852   0.584
    1MOL    H09 1712   0.447   0.816   0.513
    1MOL    C0A 1713   0.539   1.046   0.056
    1MOL    C0B 1714   0.310   1.089   0.123
    1MOL    H0C 1715   0.119   1.115   0.199
    1MOL    H0D 1716   0.032   1.038   0.434
    1MOL    C0E 1717   0.137   0.922   0.567
    1MOL    C0F 1718   0.278   0.788   0.707
    1MOL    C0G 1719   0.516   1.116  -0.065
    1MOL    H0H 1720   0.638   1.003   0.072
    1MOL    C0I 1721   0.299   1.167   0.011
    1MOL    C0J 1722   0.047   0.918   0.671
    1MOL    C0K 1723   0.184   0.792   0.816
    1MOL    H0M 1724   0.375   0.740   0.728
    1MOL    C0N 1725   0.396   1.181  -0.090
    1MOL    H0O 1726   0.597   1.117  -0.138
    1MOL    H0P 1727   0.200   1.220   0.005
    1MOL    H0Q 1728  -0.044   0.974   0.657
    1MOL    C0R 1729   0.065   0.857   0.794
    1MOL    C0S 1730   0.211   0.734   0.944
    1MOL    H0T 1731   0.392   1.237  -0.179
    1MOL    C0U 1732  -0.031   0.853   0.899
    1MOL    C0V 1733   0.114   0.742   1.051
    1MOL    H0W 1734   0.307   0.685   0.972
    1MOL    C0X 1735  -0.008   0.798   1.026
    1MOL    H0Y 1736  -0.132   0.894   0.885
    1MOL    H0Z 1737   0.141   0.705   1.149
    1MOL    H10 1738  -0.089   0.791   1.100
    1MOL    C00 1740   0.432   1.627   3.191
    1MOL    C01 1741   0.531   1.631   3.089
    1MOL    C02 1742   0.319   1.704   3.176
    1MOL    C03 1743   0.443   1.566   3.312
    1MOL    C04 1744   0.522   1.707   2.972
    1MOL    H05 1745   0.627   1.568   3.096
    1MOL    C06 1746   0.308   1.782   3.062
    1MOL    C07 1747   0.232   1.714   3.283
    1MOL    C08 1748   0.356   1.561   3.418
    1MOL    H09 1749   0.542   1.516   3.327
    1MOL    C0A 1750   0.627   1.729   2.881
    1MOL    C0B 1751   0.408   1.784   2.957
    1MOL    H0C 1752   0.229   1.860   3.063
    1MOL    H0D 1753   0.145   1.767   3.285
    1MOL    C0E 1754   0.240   1.637   3.401
    1MOL    C0F 1755   0.365   1.488   3.537
    1MOL    C0G 1756   0.617   1.806   2.763
    1MOL    H0H 1757   0.721   1.672   2.890
    1MOL    C0I 1758   0.397   1.865   2.839
    1MOL    C0J 1759   0.143   1.635   3.504
    1MOL    C0K 1760   0.275   1.489   3.646
    1MOL    H0M 1761   0.461   1.436   3.555
    1MOL    C0N 1762   0.496   1.874   2.740
    1MOL    H0O 1763   0.689   1.808   2.688
    1MOL    H0P 1764   0.304   1.918   2.819
    1MOL    H0Q 1765   0.056   1.693   3.486
    1MOL    C0R 1766   0.161   1.564   3.629
    1MOL    C0S 1767   0.297   1.425   3.767
    1MOL    H0T 1768   0.476   1.940   2.663
    1MOL    C0U 1769   0.064   1.557   3.737
    1MOL    C0V 1770   0.204   1.415   3.873
    1MOL    H0W 1771   0.387   1.359   3.772
    1MOL    C0X 1772   0.087   1.486   3.858
    1MOL    H0Y 1773  -0.031   1.607   3.742
    1MOL    H0Z 1774   0.233   1.363   3.969
    1MOL    H10 1775   0.017   1.503   3.942
    1MOL    C00 1777   0.069   0.153   0.598
    1MOL    C01 1778  -0.025   0.143   0.705
    1MOL    C02 1779   0.194   0.097   0.622
    1MOL    C03 1780   0.046   0.210   0.473
    1MOL    C04 1781  -0.004   0.068   0.826
    1MOL    H05 1782  -0.123   0.185   0.684
    1MOL    C06 1783   0.210   0.016   0.744
    1MOL    C07 1784   0.290   0.116   0.520
    1MOL    C08 1785   0.147   0.229   0.375
    1MOL    H09 1786  -0.050   0.253   0.449
    1MOL    C0A 1787  -0.095   0.055   0.934
    1MOL    C0B 1788   0.115  -0.001   0.845
    1MOL    H0C 1789   0.301  -0.036   0.767
    1MOL    H0D 1790   0.383   0.061   0.532
    1MOL    C0E 1791   0.273   0.176   0.399
    1MOL    C0F 1792   0.125   0.297   0.256
    1MOL    C0G 1793  -0.082  -0.031   1.038
    1MOL    H0H 1794  -0.190   0.102   0.934
    1MOL    C0I 1795   0.136  -0.083   0.960
    1MOL    C0J 1796   0.370   0.177   0.299
    1MOL    C0K 1797   0.220   0.303   0.152
    1MOL    H0M 1798   0.037   0.348   0.232
    1MOL    C0N 1799   0.038  -0.101   1.051
    1MOL    H0O 1800  -0.164  -0.048   1.104
    1MOL    H0P 1801   0.229  -0.136   0.977
    1MOL    H0Q 1802   0.468   0.135   0.312
    1MOL    C0R 1803   0.348   0.243   0.174
    1MOL    C0S 1804   0.202   0.371   0.032
    1MOL    H0T 1805   0.063  -0.170   1.140
    1MOL    C0U 1806   0.448   0.258   0.077
    1MOL    C0V 1807   0.301   0.385  -0.064
    1MOL    H0W 1808   0.103   0.417   0.012
    1MOL    C0X 1809   0.428   0.334  -0.045
    1MOL    H0Y 1810   0.546   0.208   0.103
    1MOL    H0Z 1811   0.295   0.439  -0.156
    1MOL    H10 1812   0.512   0.338  -0.114
    1MOL    C00 1814   0.170   0.869   3.438
    1MOL    C01 1815   0.083   0.862   3.542
    1MOL    C02 1816   0.290   0.805   3.458
    1MOL    C03 1817   0.159   0.937   3.308
    1MOL    C04 1818   0.101   0.797   3.667
    1MOL    H05 1819  -0.015   0.909   3.527
    1MOL    C06 1820   0.314   0.744   3.585
    1MOL    C07 1821   0.386   0.809   3.355
    1MOL    C08 1822   0.254   0.945   3.206
    1MOL    H09 1823   0.070   0.988   3.298
    1MOL    C0A 1824   0.006   0.781   3.774
    1MOL    C0B 1825   0.223   0.738   3.691
    1MOL    H0C 1826   0.407   0.692   3.606
    1MOL    H0D 1827   0.470   0.740   3.378
    1MOL    C0E 1828   0.371   0.873   3.230
    1MOL    C0F 1829   0.239   1.013   3.086
    1MOL    C0G 1830   0.034   0.716   3.895
    1MOL    H0H 1831  -0.097   0.817   3.769
    1MOL    C0I 1832   0.255   0.682   3.820
    1MOL    C0J 1833   0.462   0.868   3.121
    1MOL    C0K 1834   0.334   1.022   2.982
    1MOL    H0M 1835   0.143   1.068   3.079
    1MOL    C0N 1836   0.159   0.661   3.919
    1MOL    H0O 1837  -0.052   0.705   3.960
    1MOL    H0P 1838   0.358   0.637   3.841
    1MOL    H0Q 1839   0.548   0.793   3.134
    1MOL    C0R 1840   0.450   0.945   2.999
    1MOL    C0S 1841   0.326   1.103   2.863
    1MOL    H0T 1842   0.180   0.608   4.014
    1MOL    C0U 1843   0.544   0.936   2.889
    1MOL    C0V 1844   0.419   1.090   2.756
    1MOL    H0W 1845   0.245   1.177   2.849
    1MOL    C0X 1846   0.531   1.011   2.769
    1MOL    H0Y 1847   0.637   0.878   2.888
    1MOL    H0Z 1848   0.406   1.158   2.674
    1MOL    H10 1849   0.605   0.998   2.694
    1MOL    C00 1851   0.322   0.447   1.765
    1MOL    C01 1852   0.415   0.451   1.660
    1MOL    C02 1853   0.213   0.531   1.743
    1MOL    C03 1854   0.336   0.385   1.892
    1MOL    C04 1855   0.407   0.523   1.542
    1MOL    H05 1856   0.502   0.395   1.673
    1MOL    C06 1857   0.198   0.603   1.622
    1MOL    C07 1858   0.117   0.535   1.848
    1MOL    C08 1859   0.244   0.394   1.995
    1MOL    H09 1860   0.425   0.331   1.905
    1MOL    C0A 1861   0.502   0.516   1.440
    1MOL    C0B 1862   0.293   0.603   1.522
    1MOL    H0C 1863   0.117   0.657   1.606
    1MOL    H0D 1864   0.034   0.595   1.815
    1MOL    C0E 1865   0.130   0.466   1.974
    1MOL    C0F 1866   0.257   0.339   2.124
    1MOL    C0G 1867   0.484   0.581   1.320
    1MOL    H0H 1868   0.589   0.454   1.462
    1MOL    C0I 1869   0.284   0.678   1.398
    1MOL    C0J 1870   0.029   0.473   2.073
    1MOL    C0K 1871   0.161   0.352   2.228
    1MOL    H0M 1872   0.352   0.294   2.134
    1MOL    C0N 1873   0.376   0.666   1.291
    1MOL    H0O 1874   0.566   0.558   1.246
    1MOL    H0P 1875   0.193   0.729   1.370
    1MOL    H0Q 1876  -0.061   0.527   2.051
    1MOL    C0R 1877   0.041   0.417   2.204
    1MOL    C0S 1878   0.184   0.296   2.358
    1MOL    H0T 1879   0.359   0.709   1.192
    1MOL    C0U 1880  -0.054   0.436   2.305
    1MOL    C0V 1881   0.090   0.304   2.459
    1MOL    H0W 1882   0.272   0.238   2.372
    1MOL    C0X 1883  -0.025   0.379   2.437
    1MOL    H0Y 1884  -0.149   0.493   2.287
    1MOL    H0Z 1885   0.110   0.274   2.557
    1MOL    H10 1886  -0.094   0.405   2.517
    1MOL    C00 1888   0.479   2.030   1.796
    1MOL    C01 1889   0.577   2.034   1.692
    1MOL    C02 1890   0.353   2.085   1.764
    1MOL    C03 1891   0.492   1.966   1.917
    1MOL    C04 1892   0.567   2.090   1.565
    1MOL    H05 1893   0.662   1.976   1.718
    1MOL    C06 1894   0.343   2.148   1.636
    1MOL    C07 1895   0.254   2.075   1.865
    1MOL    C08 1896   0.392   1.967   2.023
    1MOL    H09 1897   0.585   1.910   1.925
    1MOL    C0A 1898   0.670   2.094   1.470
    1MOL    C0B 1899   0.439   2.141   1.531
    1MOL    H0C 1900   0.253   2.204   1.618
    1MOL    H0D 1901   0.158   2.122   1.844
    1MOL    C0E 1902   0.269   2.024   1.993
    1MOL    C0F 1903   0.406   1.909   2.156
    1MOL    C0G 1904   0.649   2.146   1.343
    1MOL    H0H 1905   0.769   2.054   1.498
    1MOL    C0I 1906   0.423   2.181   1.398
    1MOL    C0J 1907   0.181   2.034   2.102
    1MOL    C0K 1908   0.303   1.911   2.259
    1MOL    H0M 1909   0.504   1.861   2.181
    1MOL    C0N 1910   0.527   2.198   1.306
    1MOL    H0O 1911   0.735   2.153   1.272
    1MOL    H0P 1912   0.326   2.235   1.365
    1MOL    H0Q 1913   0.097   2.098   2.075
    1MOL    C0R 1914   0.187   1.983   2.227
    1MOL    C0S 1915   0.315   1.850   2.384
    1MOL    H0T 1916   0.497   2.237   1.213
    1MOL    C0U 1917   0.089   1.995   2.329
    1MOL    C0V 1918   0.216   1.856   2.483
    1MOL    H0W 1919   0.410   1.793   2.403
    1MOL    C0X 1920   0.107   1.936   2.453
    1MOL    H0Y 1921  -0.008   2.039   2.295
    1MOL    H0Z 1922   0.223   1.801   2.575
    1MOL    H10 1923   0.024   1.939   2.526
    1MOL    C00 1925   0.311   0.076   3.195
    1MOL    C01 1926   0.409   0.069   3.090
    1MOL    C02 1927   0.202   0.158   3.170
    1MOL    C03 1928   0.315   0.011   3.316
    1MOL    C04 1929   0.402   0.142   2.968
    1MOL    H05 1930   0.495   0.014   3.109
    1MOL    C06 1931   0.197   0.226   3.043
    1MOL    C07 1932   0.104   0.168   3.272
    1MOL    C08 1933   0.222   0.022   3.422
    1MOL    H09 1934   0.394  -0.048   3.329
    1MOL    C0A 1935   0.496   0.139   2.861
    1MOL    C0B 1936   0.287   0.221   2.943
    1MOL    H0C 1937   0.106   0.279   3.008
    1MOL    H0D 1938   0.011   0.222   3.257
    1MOL    C0E 1939   0.111   0.101   3.399
    1MOL    C0F 1940   0.234  -0.045   3.549
    1MOL    C0G 1941   0.477   0.191   2.734
    1MOL    H0H 1942   0.589   0.078   2.885
    1MOL    C0I 1943   0.269   0.289   2.823
    1MOL    C0J 1944   0.015   0.112   3.502
    1MOL    C0K 1945   0.137  -0.031   3.649
    1MOL    H0M 1946   0.326  -0.098   3.576
    1MOL    C0N 1947   0.364   0.274   2.720
    1MOL    H0O 1948   0.547   0.182   2.657
    1MOL    H0P 1949   0.166   0.331   2.805
    1MOL    H0Q 1950  -0.067   0.182   3.482
    1MOL    C0R 1951   0.025   0.050   3.628
    1MOL    C0S 1952   0.150  -0.092   3.774
    1MOL    H0T 1953   0.345   0.326   2.621
    1MOL    C0U 1954  -0.070   0.060   3.738
    1MOL    C0V 1955   0.052  -0.087   3.876
    1MOL    H0W 1956   0.239  -0.149   3.790
    1MOL    C0X 1957  -0.061  -0.014   3.856
    1MOL    H0Y 1958  -0.159   0.118   3.715
    1MOL    H0Z 1959   0.071  -0.136   3.970
    1MOL    H10 1960  -0.137   0.005   3.934
    1MOL    C00 1962   0.226   1.705   0.595
    1MOL    C01 1963   0.137   1.699   0.707
    1MOL    C02 1964   0.338   1.628   0.604
    1MOL    C03 1965   0.210   1.777   0.474
    1MOL    C04 1966   0.159   1.628   0.825
    1MOL    H05 1967   0.044   1.746   0.679
    1MOL    C06 1968   0.358   1.553   0.721
    1MOL    C07 1969   0.431   1.633   0.496
    1MOL    C08 1970   0.298   1.782   0.365
    1MOL    H09 1971   0.116   1.827   0.463
    1MOL    C0A 1972   0.064   1.613   0.926
    1MOL    C0B 1973   0.276   1.547   0.833
    1MOL    H0C 1974   0.448   1.498   0.717
    1MOL    H0D 1975   0.530   1.595   0.507
    1MOL    C0E 1976   0.415   1.711   0.383
    1MOL    C0F 1977   0.282   1.860   0.251
    1MOL    C0G 1978   0.088   1.538   1.038
    1MOL    H0H 1979  -0.026   1.673   0.913
    1MOL    C0I 1980   0.306   1.469   0.951
    1MOL    C0J 1981   0.513   1.727   0.283
    1MOL    C0K 1982   0.375   1.871   0.148
    1MOL    H0M 1983   0.194   1.916   0.247
    1MOL    C0N 1984   0.205   1.466   1.050
    1MOL    H0O 1985   0.027   1.546   1.125
    1MOL    H0P 1986   0.394   1.401   0.950
    1MOL    H0Q 1987   0.610   1.674   0.297
    1MOL    C0R 1988   0.496   1.800   0.165
    1MOL    C0S 1989   0.358   1.949   0.032
    1MOL    H0T 1990   0.220   1.402   1.139
    1MOL    C0U 1991   0.590   1.807   0.056
    1MOL    C0V 1992   0.456   1.967  -0.067
    1MOL    H0W 1993   0.262   1.999   0.011
    1MOL    C0X 1994   0.576   1.897  -0.052
    1MOL    H0Y 1995   0.686   1.759   0.056
    1MOL    H0Z 1996   0.438   2.025  -0.153
    1MOL    H10 1997   0.645   1.905  -0.135
   1.89620   2.32015   4.24736   0.00000   0.00000   0.22259   0.00000   0.15154   0.99026
