default_name
  3436
  37.3890000  37.3900000  34.7980000  32.2110000  32.2110000  34.7980000
  37.2050000  33.3450000  34.7990000  32.3950000  36.2550000  34.7980000
  36.0210000  35.4670000  34.7980000  33.5800000  34.1330000  34.7980000
  36.0010000  34.0620000  34.7980000  33.5990000  35.5380000  34.7980000
  34.8300000  36.2020000  34.7980000  34.7700000  33.3980000  34.7980000
  38.5750000  35.3510000  34.8000000  31.0250000  34.2490000  34.8000000
  38.4680000  33.9510000  34.8000000  31.1320000  35.6490000  34.8000000
  37.3330000  36.1670000  34.7990000  32.2680000  33.4330000  34.7990000
  39.8270000  35.9720000  34.8020000  29.7730000  33.6270000  34.8020000
  39.6360000  33.1810000  34.8010000  29.9640000  36.4180000  34.8010000
  40.9830000  35.1910000  34.8030000  28.6170000  34.4080000  34.8040000
  40.8880000  33.8000000  34.8030000  28.7120000  35.8000000  34.8030000
  34.8510000  37.2900000  34.7980000  34.7490000  32.3110000  34.7980000
  37.1600000  32.3340000  34.7970000  32.4400000  37.2660000  34.7990000
  39.9230000  37.0540000  34.8020000  29.6780000  32.5450000  34.8020000
  39.5800000  32.0960000  34.8010000  30.0190000  37.5040000  34.8010000
  41.9590000  35.6670000  34.8040000  27.6410000  33.9320000  34.8050000
  41.7900000  33.1950000  34.8040000  27.8100000  36.4040000  34.8040000
  49.2060000  46.4600000  39.5510000  47.9050000  46.6770000  40.0800000
  49.1290000  46.4560000  37.7400000  50.2220000  47.9360000  39.8220000
  48.5360000  45.6060000  37.4030000  48.6670000  47.3810000  37.3940000
  50.1380000  46.3810000  37.3340000  50.3680000  48.0870000  40.8910000
  51.1900000  47.8060000  39.3380000  49.7200000  48.8060000  39.3980000
  18.5850000  23.9850000  26.7590000  17.4000000  23.2770000  27.0980000
  18.2010000  25.2430000  25.5120000  19.0710000  25.0490000  28.1440000
  17.8820000  24.7570000  24.5900000  17.4000000  25.8850000  25.8790000
  19.0880000  25.8450000  25.3180000  19.3400000  24.4320000  29.0000000
  19.9260000  25.6580000  27.8520000  18.2380000  25.6990000  28.4120000
  33.4470000  36.4610000  28.6610000  34.3620000  37.5340000  28.4870000
  32.6260000  36.6220000  30.2700000  32.0280000  36.6920000  27.5570000
  33.3610000  36.5060000  31.0660000  32.1630000  37.6070000  30.3440000
  31.8610000  35.8530000  30.3650000  32.3580000  36.6240000  26.5210000
  31.2850000  35.9200000  27.7540000  31.5860000  37.6730000  27.7330000
  36.5220000  18.6780000  42.0970000  36.4190000  17.5680000  42.9800000
  38.1310000  19.4820000  42.3220000  36.7000000  18.0820000  40.3950000
  38.1900000  19.9050000  43.3240000  38.9250000  18.7470000  42.1920000
  38.2470000  20.2750000  41.5840000  35.7930000  17.5590000  40.0950000
  36.8690000  18.9270000  39.7290000  37.5480000  17.3990000  40.3360000
  43.3730000  49.8820000  45.0840000  43.3580000  48.7700000  45.9700000
  43.6710000  49.3020000  43.3920000  41.6910000  50.5330000  44.9040000
  44.6680000  48.8690000  43.3260000  42.9290000  48.5470000  43.1310000
  43.5920000  50.1410000  42.7020000  41.3500000  50.9300000  45.8590000
  41.6860000  51.3260000  44.1570000  41.0230000  49.7320000  44.5860000
  46.0390000  29.6750000  47.6440000  46.8970000  30.7920000  47.8350000
  46.2850000  29.0030000  45.9780000  46.6310000  28.2800000  48.6390000
  45.9690000  29.7380000  45.2390000  47.3400000  28.7710000  45.8320000
  45.6950000  28.0940000  45.8630000  46.5510000  28.5270000  49.6970000
  46.0290000  27.3980000  48.4240000  47.6740000  28.0750000  48.3930000
  32.1220000  42.6260000  43.7040000  32.7830000  41.8160000  42.7420000
  31.9330000  41.6970000  45.2490000  33.2400000  43.9400000  44.2590000
  31.2700000  40.8480000  45.0850000  32.9080000  41.3380000  45.5790000
  31.5080000  42.3470000  46.0140000  33.4620000  44.6060000  43.4260000
  32.7670000  44.5060000  45.0610000  34.1670000  43.4980000  44.6260000
  25.2730000  50.4000000  33.4500000  24.8120000  51.7070000  33.1340000
  24.0600000  49.1770000  32.8840000  26.6730000  49.9770000  32.3790000
  23.1330000  49.2990000  33.4430000  23.8650000  49.3250000  31.8210000
  24.4530000  48.1740000  33.0440000  27.5100000  50.6390000  32.5960000
  26.9690000  48.9440000  32.5580000  26.3800000  50.0940000  31.3350000
  33.7190000  21.2110000  41.8450000  32.4660000  20.7210000  41.3870000
  34.1660000  20.3770000  43.3920000  35.0390000  20.6000000  40.7630000
  33.4510000  20.6450000  44.1690000  34.1490000  19.2980000  43.2400000
  35.1660000  20.6860000  43.6950000  34.9140000  21.0170000  39.7650000
  36.0060000  20.9000000  41.1640000  34.9900000  19.5120000  40.7090000
  44.3910000  32.3470000  50.8470000  45.1440000  32.9250000  51.9050000
  45.5200000  31.7050000  49.5830000  43.6390000  30.7990000  51.4160000
  46.0670000  32.5310000  49.1290000  46.2260000  31.0130000  50.0440000
  44.9480000  31.1820000  48.8170000  42.9150000  31.0130000  52.2010000
  43.1370000  30.3100000  50.5820000  44.4140000  30.1410000  51.8080000
  38.3490000  29.4150000  18.5490000  37.9710000  30.1620000  17.4000000
  37.0270000  29.4990000  19.7860000  38.3080000  27.6450000  18.1600000
  36.9180000  30.5260000  20.1340000  36.0900000  29.1660000  19.3390000
  37.2760000  28.8540000  20.6280000  39.0630000  27.4200000  17.4080000
  38.5100000  27.0700000  19.0630000  37.3230000  27.3810000  17.7740000
  40.1720000  40.4430000  44.2780000  41.3470000  39.6480000  44.3770000
  40.1240000  41.6240000  45.6530000  40.3340000  41.5890000  42.8820000
  40.0270000  41.0830000  46.5940000  41.0450000  42.2070000  45.6640000
  39.2730000  42.2920000  45.5280000  40.3790000  41.0250000  41.9520000
  39.4750000  42.2590000  42.8610000  41.2470000  42.1740000  42.9970000
  35.6450000  22.5990000  46.3210000  35.0770000  21.4110000  45.7860000
  35.4850000  22.5840000  48.1270000  37.4490000  22.5310000  46.1620000
  34.4310000  22.6210000  48.4000000  35.9310000  21.6710000  48.5230000
  36.0000000  23.4490000  48.5440000  37.7220000  22.5320000  45.1080000
  37.8900000  23.3990000  46.6520000  37.8220000  21.6210000  46.6320000
  25.8330000  44.5880000  43.3370000  26.4070000  43.7950000  44.3680000
  26.8120000  44.4120000  41.8220000  24.2730000  43.8390000  42.7960000
  27.8080000  44.8250000  41.9820000  26.8950000  43.3560000  41.5640000
  26.3220000  44.9470000  41.0090000  23.5540000  43.8640000  43.6130000
  23.8790000  44.3950000  41.9460000  24.4510000  42.8040000  42.5000000
  28.2800000  44.8670000  36.7850000  29.4930000  45.5790000  36.9910000
  28.0760000  44.5180000  35.0180000  28.4530000  43.1800000  37.4240000
  27.9570000  45.4540000  34.4730000  28.9570000  43.9930000  34.6480000
  27.1940000  43.8960000  34.8700000  28.5880000  43.2110000  38.5040000
  27.5570000  42.6070000  37.1860000  29.3190000  42.7040000  36.9630000
  45.0590000  19.3450000  46.7450000  45.7000000  18.8290000  45.5870000
  44.8740000  21.1420000  46.5830000  43.3160000  18.8460000  46.7450000
  45.8580000  21.6090000  46.5670000  44.3480000  21.3700000  45.6560000
  44.3020000  21.5250000  47.4280000  43.2480000  17.7630000  46.8370000
  42.8030000  19.3150000  47.5830000  42.8480000  19.1610000  45.8110000
  29.4610000  23.5570000  38.1400000  28.6210000  22.8210000  37.2610000
  28.5320000  24.0020000  39.6320000  30.7030000  22.4490000  38.8580000
  27.7240000  24.6830000  39.3690000  28.1140000  23.1000000  40.0820000
  29.2000000  24.4860000  40.3440000  31.3610000  22.0810000  38.0720000
  31.2890000  22.9910000  39.5990000  30.2040000  21.6060000  39.3370000
  31.4720000  18.9880000  39.2880000  31.6240000  17.6630000  39.7800000
  32.7890000  19.3450000  38.0950000  30.0260000  19.0650000  38.1980000
  33.7530000  19.3350000  38.6030000  32.7840000  18.5860000  37.3120000
  32.6210000  20.3250000  37.6510000  29.1240000  18.8670000  38.7740000
  29.9610000  20.0570000  37.7500000  30.1250000  18.3180000  37.4100000
  38.4670000  48.1780000  24.2390000  38.3310000  47.4050000  25.4240000
  40.0650000  49.0350000  24.2560000  38.7150000  47.0730000  22.8230000
  40.0830000  49.7560000  25.0730000  40.8650000  48.3070000  24.3970000
  40.2090000  49.5540000  23.3090000  37.8210000  46.4690000  22.6720000
  38.9090000  47.6660000  21.9300000  39.5660000  46.4200000  23.0160000
  22.1480000  27.7590000  35.0120000  21.6900000  28.4370000  33.8500000
  23.5440000  26.6880000  34.5770000  22.9820000  28.9360000  36.1090000
  23.2040000  25.9030000  33.9010000  24.3160000  27.2800000  34.0850000
  23.9520000  26.2380000  35.4810000  22.2630000  29.6710000  36.4690000
  23.4110000  28.4030000  36.9560000  23.7760000  29.4440000  35.5610000
  20.2520000  41.0930000  30.1090000  20.7750000  42.3470000  29.6900000
  21.1860000  40.5000000  31.5450000  18.6250000  41.3400000  30.8680000
  22.2160000  40.2980000  31.2520000  21.1730000  41.2600000  32.3260000
  20.7290000  39.5850000  31.9220000  17.9260000  41.7070000  30.1190000
  18.2640000  40.3940000  31.2700000  18.7080000  42.0690000  31.6750000
  36.9920000  40.8300000  44.2950000  37.3590000  42.1360000  43.8720000
  36.8530000  40.7970000  46.1030000  35.2670000  40.5090000  43.8390000
  37.8320000  40.9790000  46.5460000  36.1590000  41.5720000  46.4270000
  36.4840000  39.8230000  46.4210000  35.1730000  40.4970000  42.7540000
  34.9570000  39.5460000  44.2420000  34.6310000  41.2950000  44.2490000
  25.5020000  26.1910000  50.0630000  24.6430000  25.0650000  49.9420000
  25.4440000  27.1630000  48.5330000  24.7790000  27.3820000  51.2230000
  25.8530000  26.5750000  47.7120000  24.4100000  27.4260000  48.3100000
  26.0310000  28.0720000  48.6580000  24.7390000  26.9420000  52.2180000
  25.3910000  28.2830000  51.2470000  23.7700000  27.6380000  50.8990000
  20.6420000  45.1840000  46.0570000  20.6190000  43.7980000  46.3690000
  19.6520000  46.0930000  47.2750000  22.2850000  45.8580000  46.4180000
  18.6070000  45.7960000  47.1890000  20.0130000  45.8670000  48.2780000
  19.7430000  47.1630000  47.0900000  23.0190000  45.4020000  45.7550000
  22.2770000  46.9370000  46.2650000  22.5480000  45.6410000  47.4530000
  28.0040000  48.2280000  23.7390000  28.4520000  47.8890000  22.4330000
  28.3750000  46.8670000  24.8780000  29.0720000  49.5200000  24.4290000
  27.7970000  45.9880000  24.5940000  29.4390000  46.6340000  24.8290000
  28.1140000  47.1630000  25.8930000  28.9670000  50.4310000  23.8430000
  28.7850000  49.7160000  25.4610000  30.1100000  49.1870000  24.3980000
  32.3100000  27.0660000  32.7200000  33.1670000  28.1800000  32.9280000
  31.0410000  27.0300000  34.0140000  31.2710000  27.3670000  31.2650000
  31.5110000  26.8540000  34.9810000  30.5160000  27.9860000  34.0350000
  30.3300000  26.2310000  33.8040000  31.8960000  27.4190000  30.3750000
  30.5520000  26.5560000  31.1580000  30.7370000  28.3100000  31.3890000
  29.2910000  35.4600000  47.9080000  30.2910000  34.7370000  47.2040000
  27.7570000  35.4670000  46.9420000  28.7530000  34.5010000  49.3490000
  27.9120000  36.0190000  46.0150000  27.4700000  34.4410000  46.7090000
  26.9650000  35.9430000  47.5200000  29.5820000  34.4000000  50.0490000
  27.9250000  35.0130000  49.8380000  28.4280000  33.5120000  49.0270000
  48.8320000  46.0460000  29.8370000  48.2390000  44.9110000  29.2220000
  49.3770000  47.2110000  28.5580000  47.5470000  47.0390000  30.6420000
  50.1710000  46.7560000  27.9670000  48.5360000  47.4570000  27.9090000
  49.7490000  48.1200000  29.0300000  47.1040000  46.4690000  31.4570000
  47.9870000  47.9540000  31.0360000  46.7740000  47.2920000  29.9150000
  50.5620000  37.0990000  30.8850000  49.3340000  37.7410000  31.2020000
  50.9510000  35.8750000  32.1640000  50.3210000  36.0040000  29.4600000
  51.1280000  36.3820000  33.1120000  50.1140000  35.1850000  32.2730000
  51.8430000  35.3200000  31.8750000  50.0710000  36.5980000  28.5820000
  51.2360000  35.4440000  29.2730000  49.5080000  35.3080000  29.6700000
  22.6170000  23.7020000  50.4280000  21.2000000  23.8000000  50.4710000
  23.1360000  22.1190000  51.1420000  23.1560000  23.4690000  48.7130000
  22.8770000  22.0940000  52.2010000  22.6270000  21.3040000  50.6260000
  24.2130000  22.0040000  51.0280000  22.9110000  24.3550000  48.1310000
  24.2320000  23.3040000  48.6900000  22.6470000  22.6030000  48.2880000
  40.9970000  26.5300000  20.6920000  40.7480000  26.1160000  19.3550000
  42.4420000  27.6240000  20.7260000  39.7080000  27.6910000  21.2160000
  43.3290000  27.0660000  20.4280000  42.2860000  28.4530000  20.0360000
  42.5790000  28.0130000  21.7350000  38.7470000  27.1790000  21.2480000
  39.9470000  28.0770000  22.2060000  39.6540000  28.5180000  20.5080000
  51.0020000  34.7820000  35.1000000  51.1970000  33.8430000  34.0510000
  49.3160000  35.4430000  35.0130000  50.9180000  33.9070000  36.6860000
  49.1950000  36.0120000  34.0920000  48.6020000  34.6190000  35.0280000
  49.1370000  36.0930000  35.8690000  51.8790000  33.4380000  36.8940000
  50.6790000  34.6150000  37.4790000  50.1440000  33.1410000  36.6380000
  20.7360000  42.1120000  37.2290000  19.3840000  41.8560000  36.8730000
  21.4630000  43.2770000  36.0450000  20.7830000  43.1200000  38.7350000
  21.5080000  42.8140000  35.0600000  20.8470000  44.1760000  35.9960000
  22.4680000  43.5440000  36.3690000  20.3690000  42.5510000  39.5670000
  21.8140000  43.3920000  38.9580000  20.1940000  44.0250000  38.5860000
  39.0730000  35.9500000  26.7130000  40.0560000  36.3250000  27.6680000
  38.8510000  34.1510000  26.7490000  37.4380000  36.4820000  27.2870000
  39.7690000  33.6640000  26.4230000  38.6140000  33.8350000  27.7660000
  38.0350000  33.8720000  26.0830000  37.4020000  37.5700000  27.3250000
  36.6750000  36.1170000  26.6010000  37.2530000  36.0790000  28.2830000
  25.0320000  32.5710000  45.1490000  23.7350000  32.2930000  44.6360000
  25.4530000  31.3490000  46.4200000  26.2770000  32.1660000  43.8950000
  24.7790000  31.4590000  47.2690000  25.3540000  30.3450000  46.0060000
  26.4800000  31.5060000  46.7480000  26.1580000  32.8280000  43.0380000
  27.2730000  32.2930000  44.3180000  26.1480000  31.1320000  43.5750000
  46.3200000  49.9360000  39.5750000  46.9550000  50.7670000  40.5380000
  45.3990000  48.6240000  40.4230000  44.9490000  50.8410000  38.8070000
  46.0960000  47.9730000  40.9500000  44.7080000  49.0700000  41.1380000
  44.8390000  48.0430000  39.6910000  45.3400000  51.6860000  38.2440000
  44.4060000  50.1760000  38.1360000  44.2730000  51.2030000  39.5830000
  18.6670000  40.1220000  28.7910000  17.3990000  40.2570000  28.1620000
  18.8150000  38.4600000  29.5000000  19.9640000  40.0450000  27.5270000
  18.0840000  38.3380000  30.2980000  18.6330000  37.7170000  28.7240000
  19.8190000  38.3260000  29.9030000  20.0080000  40.9920000  26.9920000
  20.9240000  39.8510000  28.0040000  19.7390000  39.2420000  26.8250000
  37.8380000  30.3870000  50.0150000  39.2230000  30.6380000  50.2120000
  37.0220000  30.2010000  51.6240000  37.0280000  31.8960000  49.4210000
  37.4070000  29.3140000  52.1270000  37.2230000  31.0810000  52.2360000
  35.9480000  30.0990000  51.4760000  37.4170000  32.1550000  48.4380000
  35.9530000  31.7310000  49.3560000  37.2280000  32.7120000  50.1160000
  23.8950000  41.8890000  26.8040000  22.5300000  42.2860000  26.8070000
  24.7430000  42.6550000  25.3970000  24.7620000  42.6960000  28.1760000
  24.3290000  42.2680000  24.4670000  24.6040000  43.7360000  25.4340000
  25.8070000  42.4250000  25.4460000  24.3600000  42.3380000  29.1220000
  25.8250000  42.4640000  28.1200000  24.6220000  43.7760000  28.1090000
  49.3880000  32.5090000  39.9590000  49.1890000  32.5970000  38.5540000
  47.8520000  32.9520000  40.8150000  49.5280000  30.7670000  40.4420000
  47.6180000  33.9990000  40.6230000  47.0390000  32.3250000  40.4500000
  47.9770000  32.7980000  41.8870000  50.4240000  30.3370000  39.9970000
  49.5890000  30.6940000  41.5270000  48.6510000  30.2210000  40.0910000
  46.9810000  43.7800000  49.2560000  48.2730000  43.4740000  48.7490000
  45.7270000  43.3220000  48.0290000  46.5620000  42.6220000  50.5850000
  45.8430000  43.9420000  47.1400000  45.8520000  42.2730000  47.7570000
  44.7340000  43.4720000  48.4510000  47.2420000  42.7680000  51.4230000
  45.5380000  42.7980000  50.9120000  46.6540000  41.5990000  50.2180000
  21.7960000  34.7520000  49.6120000  23.1570000  35.0580000  49.8860000
  21.7080000  33.2790000  48.5590000  21.0060000  34.1160000  51.1140000
  22.1550000  33.4980000  47.5900000  22.2520000  32.4610000  49.0330000
  20.6660000  32.9920000  48.4240000  20.9780000  34.8990000  51.8710000
  19.9900000  33.7970000  50.8830000  21.5750000  33.2670000  51.4930000
  21.9340000  25.6070000  43.9160000  22.3700000  24.3220000  44.3410000
  22.1790000  26.8020000  45.2570000  23.0950000  26.2640000  42.6890000
  21.5360000  26.5430000  46.0980000  23.2210000  26.7790000  45.5780000
  21.9310000  27.8020000  44.9020000  23.0720000  25.6410000  41.7960000
  22.8130000  27.2830000  42.4310000  24.1030000  26.2620000  43.1060000
  25.4110000  46.7880000  22.9010000  26.7700000  46.4760000  22.6240000
  25.1940000  47.0110000  24.6870000  25.0470000  48.4680000  22.3250000
  25.3820000  46.0660000  25.1970000  25.8950000  47.7630000  25.0470000
  24.1740000  47.3380000  24.8900000  25.1370000  48.5080000  21.2410000
  24.0330000  48.7400000  22.6170000  25.7540000  49.1660000  22.7740000
  27.5160000  29.3910000  37.6250000  27.6110000  28.2400000  38.4550000
  28.0520000  30.8520000  38.5550000  28.8100000  29.3300000  36.3570000
  27.3610000  31.0330000  39.3780000  29.0530000  30.6830000  38.9520000
  28.0650000  31.7180000  37.8940000  28.6330000  28.4830000  35.6960000
  28.7950000  30.2530000  35.7790000  29.7830000  29.2180000  36.8360000
  41.7320000  43.2470000  25.5360000  41.1870000  42.7830000  24.3080000
  43.4560000  43.7480000  25.2810000  40.9950000  44.8480000  25.9580000
  44.0530000  42.8770000  25.0120000  43.5050000  44.4840000  24.4780000
  43.8460000  44.1870000  26.1990000  39.9300000  44.7210000  26.1460000
  41.4770000  45.2460000  26.8510000  41.1370000  45.5430000  25.1300000
  35.5320000  45.0440000  28.8430000  35.8030000  43.6700000  28.5970000
  36.4970000  45.6040000  30.2720000  36.2840000  46.0520000  27.5380000
  36.1610000  45.0790000  31.1660000  37.5530000  45.3910000  30.1020000
  36.3600000  46.6760000  30.4050000  35.8050000  45.8300000  26.5850000
  36.1540000  47.1070000  27.7730000  37.3480000  45.8230000  27.4700000
  33.3390000  30.7720000  43.6490000  32.3580000  29.9650000  43.0100000
  34.5520000  29.7080000  44.4760000  34.3960000  31.5450000  42.3960000
  34.0640000  29.1570000  45.2790000  34.9690000  29.0050000  43.7540000
  35.3510000  30.3220000  44.8880000  33.8050000  32.2330000  41.7940000
  35.2020000  32.0900000  42.8860000  34.8200000  30.7730000  41.7520000
  41.8380000  52.2100000  26.5510000  41.3430000  51.5270000  25.4060000
  40.9170000  51.6730000  28.0180000  43.4870000  51.5810000  26.9640000
  39.8760000  51.9810000  27.9270000  40.9690000  50.5880000  28.1020000
  41.3550000  52.1270000  28.9070000  44.1810000  51.8250000  26.1610000
  43.8280000  52.0390000  27.8920000  43.4430000  50.4990000  27.0880000
  49.4920000  47.4070000  50.0840000  49.9770000  48.2430000  49.0420000
  50.7740000  47.2150000  51.3510000  48.2340000  48.2980000  51.0380000
  51.6270000  46.6840000  50.9290000  51.0950000  48.1990000  51.6950000
  50.3730000  46.6500000  52.1920000  47.3720000  48.4990000  50.4050000
  47.9280000  47.6930000  51.8900000  48.6500000  49.2410000  51.3950000
  30.0390000  17.8630000  31.2650000  29.7130000  17.4000000  32.5690000
  29.3000000  19.4970000  31.0020000  31.7980000  18.2960000  31.2000000
  28.2140000  19.4110000  31.0130000  29.6190000  20.1720000  31.7960000
  29.6240000  19.8910000  30.0390000  32.4000000  17.4000000  31.3460000
  32.0290000  18.7350000  30.2300000  32.0240000  19.0170000  31.9860000
  28.6540000  41.7450000  22.7460000  29.9730000  41.5750000  22.2450000
  28.6840000  42.8940000  24.1480000  27.6770000  42.7120000  21.5640000
  29.2490000  42.4530000  24.9690000  29.1570000  43.8280000  23.8420000
  27.6640000  43.0950000  24.4750000  27.5630000  42.1480000  20.6390000
  26.6950000  42.9190000  21.9880000  28.1870000  43.6520000  21.3550000
  35.7170000  38.4690000  40.3710000  34.4580000  39.0170000  40.0050000
  35.5140000  37.4120000  41.8300000  36.2150000  37.2280000  39.1470000
  35.2070000  38.0200000  42.6800000  34.7530000  36.6580000  41.6290000
  36.4600000  36.9200000  42.0560000  36.3800000  37.7110000  38.1850000
  37.1340000  36.7440000  39.4740000  35.4280000  36.4800000  39.0460000
  27.6400000  38.6160000  50.1010000  27.9720000  37.4170000  49.4130000
  26.7120000  38.2120000  51.6050000  29.1370000  39.3280000  50.8340000
  25.7570000  37.7620000  51.3340000  27.2870000  37.5090000  52.2080000
  26.5350000  39.1220000  52.1780000  29.8220000  39.6300000  50.0420000
  28.8700000  40.1960000  51.4350000  29.6210000  38.5840000  51.4660000
  25.4060000  29.1160000  44.1820000  24.3480000  28.3990000  43.5600000
  25.9630000  28.2160000  45.6540000  26.8970000  29.0030000  43.1580000
  25.1600000  28.1910000  46.3900000  26.2320000  27.1970000  45.3750000
  26.8320000  28.7170000  46.0790000  26.7260000  29.5080000  42.2080000
  27.7310000  29.4750000  43.6760000  27.1320000  27.9550000  42.9730000
  29.6270000  46.2260000  29.0110000  30.6180000  45.2200000  28.8440000
  29.7400000  46.9120000  30.6860000  30.0800000  47.6870000  28.0390000
  29.4920000  46.1400000  31.4130000  30.7560000  47.2660000  30.8650000
  29.0430000  47.7440000  30.7850000  30.0620000  47.4390000  26.9780000
  29.3710000  48.4900000  28.2370000  31.0830000  48.0130000  28.3170000
  30.1730000  47.9890000  35.1410000  31.4400000  48.3010000  34.5780000
  29.7000000  49.2830000  36.3190000  28.8830000  48.2130000  33.8880000
  30.3960000  49.2840000  37.1580000  29.7290000  50.2530000  35.8230000
  28.6910000  49.0910000  36.6830000  29.0260000  47.4920000  33.0850000
  27.9050000  48.0610000  34.3430000  28.9410000  49.2230000  33.4830000
  48.0220000  44.7800000  33.0500000  46.7530000  44.5160000  32.4680000
  47.8680000  46.1340000  34.2460000  48.4700000  43.4220000  34.1640000
  47.5940000  47.0510000  33.7240000  47.0970000  45.8880000  34.9760000
  48.8200000  46.2770000  34.7570000  48.6030000  42.5070000  33.5890000
  49.3990000  43.6660000  34.6790000  47.6770000  43.2780000  34.8980000
  22.2200000  24.8700000  31.6110000  21.7660000  23.7900000  30.8060000
  24.0250000  24.9960000  31.4890000  21.7400000  26.4400000  30.8430000
  24.4820000  24.1050000  31.9180000  24.3130000  25.0830000  30.4410000
  24.3640000  25.8780000  32.0320000  20.6540000  26.5240000  30.8350000
  22.1650000  27.2670000  31.4100000  22.1140000  26.4730000  29.8190000
  42.7310000  45.6700000  20.7750000  42.1200000  46.6880000  21.5570000
  42.9670000  46.2700000  19.0810000  44.4600000  45.4730000  21.2850000
  41.9960000  46.4450000  18.6180000  43.5320000  47.2030000  19.1010000
  43.5170000  45.5260000  18.5050000  44.4970000  45.1100000  22.3110000
  44.9530000  44.7590000  20.6280000  44.9690000  46.4350000  21.2230000
  37.6870000  51.0700000  28.2980000  37.5370000  50.7050000  29.6640000
  38.2270000  49.6260000  27.3430000  36.0530000  51.3440000  27.5630000
  39.2210000  49.3230000  27.6710000  37.5270000  48.8050000  27.5010000
  38.2540000  49.8810000  26.2840000  35.5780000  52.2000000  28.0390000
  36.1620000  51.5340000  26.4960000  35.4350000  50.4580000  27.7110000
  44.9520000  45.3250000  45.6870000  43.7430000  44.6010000  45.8720000
  44.7450000  46.5090000  44.3300000  45.1900000  46.4690000  47.0730000
  44.5870000  45.9690000  43.3970000  43.8830000  47.1450000  44.5310000
  45.6400000  47.1250000  44.2470000  45.3310000  45.9030000  47.9920000
  46.0680000  47.0870000  46.8870000  44.3120000  47.1070000  47.1720000
  42.7730000  27.8470000  24.7650000  43.6780000  28.9150000  24.5180000
  43.0670000  27.1780000  26.4240000  41.1000000  28.5090000  24.9810000
  44.0590000  26.7300000  26.4660000  43.0010000  27.9820000  27.1570000
  42.3160000  26.4210000  26.6480000  40.7640000  28.9620000  24.0490000
  40.4230000  27.7020000  25.2590000  41.1070000  29.2640000  25.7680000
  27.6830000  38.2740000  27.1110000  29.0180000  38.7250000  27.2980000
  27.4710000  37.7040000  25.4030000  27.4430000  36.7120000  27.9990000
  27.5890000  38.5460000  24.7220000  28.2230000  36.9470000  25.1780000
  26.4770000  37.2750000  25.2840000  27.5420000  36.8830000  29.0700000
  26.4500000  36.3200000  27.7830000  28.1950000  35.9910000  27.6760000
  39.8470000  28.2080000  48.6000000  39.7440000  29.6020000  48.3440000
  39.2750000  27.8580000  50.2840000  38.5860000  27.3220000  47.6460000
  39.9430000  28.3330000  51.0020000  38.2660000  28.2510000  50.4130000
  39.2680000  26.7810000  50.4490000  38.7880000  27.4350000  46.5820000
  38.6050000  26.2660000  47.9100000  37.6020000  27.7340000  47.8740000
  49.5930000  29.2350000  50.1570000  49.0360000  30.5330000  50.3250000
  50.2840000  29.0860000  48.4880000  51.1090000  29.0960000  51.1420000
  49.4820000  29.1520000  47.7540000  50.9990000  29.8920000  48.3170000
  50.7900000  28.1260000  48.3890000  50.8630000  29.1690000  52.2000000
  51.5840000  28.1360000  50.9430000  51.7930000  29.9010000  50.8720000
  24.3660000  30.8750000  39.8520000  25.3390000  30.4980000  40.8170000
  24.8400000  30.2210000  38.2290000  22.8390000  29.9400000  40.1370000
  25.7670000  30.6930000  37.9020000  24.9880000  29.1430000  38.3000000
  24.0510000  30.4320000  37.5080000  22.4140000  30.2220000  41.0990000
  22.1250000  30.1620000  39.3450000  23.0610000  28.8730000  40.1360000
  42.1960000  36.3760000  45.6090000  42.6270000  35.6740000  44.4510000
  41.0660000  35.3290000  46.5650000  43.5720000  36.5100000  46.7820000
  40.1610000  35.1470000  45.9850000  41.5520000  34.3790000  46.7870000
  40.8070000  35.8310000  47.4960000  44.3600000  37.1240000  46.3500000
  43.2190000  36.9680000  47.7050000  43.9640000  35.5160000  46.9970000
  48.8650000  18.5260000  33.9700000  49.5830000  17.4000000  33.4830000
  49.0860000  19.9220000  32.8350000  47.0850000  18.2380000  33.7760000
  50.1320000  20.2270000  32.8320000  48.7940000  19.6210000  31.8290000
  48.4640000  20.7560000  33.1590000  46.7800000  17.4060000  34.4090000
  46.5390000  19.1350000  34.0650000  46.8670000  18.0010000  32.7350000
  25.2720000  35.5330000  26.1000000  23.8790000  35.3170000  26.2820000
  26.1980000  34.1620000  26.8430000  25.6980000  35.2930000  24.3540000
  26.0450000  34.1620000  27.9210000  25.8450000  33.2180000  26.4260000
  27.2590000  34.2800000  26.6250000  25.2070000  36.0560000  23.7510000
  26.7770000  35.3690000  24.2290000  25.3640000  34.3070000  24.0310000
  21.6810000  40.0040000  19.6810000  21.3720000  41.3910000  19.6430000
  23.3100000  39.7270000  18.9340000  22.0270000  39.5080000  21.3900000
  23.2740000  39.9850000  17.8760000  24.0490000  40.3520000  19.4350000
  23.5860000  38.6790000  19.0440000  21.1260000  39.6180000  21.9910000
  22.3510000  38.4680000  21.4080000  22.8160000  40.1400000  21.7990000
  48.0210000  25.4330000  47.7360000  47.4110000  26.4430000  46.9430000
  46.8750000  24.9170000  49.0430000  48.1250000  23.8950000  46.7810000
  46.7000000  25.7500000  49.7230000  45.9300000  24.6080000  48.5960000
  47.3060000  24.0810000  49.5940000  48.7930000  24.0380000  45.9330000
  48.5090000  23.0980000  47.4170000  47.1330000  23.6240000  46.4190000
  29.5950000  39.8810000  41.0890000  29.5430000  38.4700000  40.9170000
  28.0030000  40.4710000  41.7240000  30.6650000  40.2790000  42.4960000
  27.2270000  40.3010000  40.9780000  27.7530000  39.9310000  42.6370000
  28.0710000  41.5370000  41.9410000  31.6880000  39.9780000  42.2730000
  30.6340000  41.3520000  42.6840000  30.3160000  39.7460000  43.3810000
  49.6960000  31.5510000  45.8570000  48.3300000  31.3810000  46.2080000
  49.8100000  32.4330000  44.2770000  50.4560000  32.7740000  46.9580000
  49.3830000  31.8180000  43.4850000  49.2580000  33.3710000  44.3450000
  50.8550000  32.6430000  44.0530000  50.4660000  32.3900000  47.9770000
  51.4770000  32.9710000  46.6340000  49.8800000  33.6990000  46.9250000
  18.5930000  28.6130000  25.8290000  17.4080000  28.0250000  25.3070000
  18.9550000  30.1440000  24.9290000  18.2560000  29.2860000  27.4780000
  19.1840000  29.9100000  23.8900000  18.0880000  30.8030000  24.9690000
  19.8100000  30.6410000  25.3870000  18.0130000  28.4740000  28.1610000
  19.1370000  29.8150000  27.8410000  17.4150000  29.9780000  27.4230000
  41.1830000  34.0110000  23.9670000  41.2500000  34.7320000  25.1900000
  39.5660000  33.2010000  23.8310000  41.0710000  35.1770000  22.5830000
  39.4680000  32.4500000  24.6130000  38.7770000  33.9450000  23.9420000
  39.4800000  32.7240000  22.8550000  41.9890000  35.7600000  22.5240000
  40.9290000  34.6260000  21.6540000  40.2260000  35.8470000  22.7400000
  26.6000000  44.3580000  47.7890000  25.8190000  43.4600000  48.5670000
  25.5190000  45.2780000  46.6610000  27.1880000  45.7130000  48.8400000
  25.0720000  44.5900000  45.9440000  24.7310000  45.7690000  47.2330000
  26.1040000  46.0290000  46.1300000  27.8670000  45.3200000  49.5950000
  27.7090000  46.4480000  48.2280000  26.3370000  46.1890000  49.3300000
  18.9960000  44.3550000  26.0560000  17.6020000  44.4220000  25.7880000
  19.2620000  43.6210000  27.6930000  19.7520000  43.0810000  25.0110000
  18.8530000  44.2810000  28.4580000  18.7620000  42.6540000  27.7430000
  20.3300000  43.4860000  27.8610000  19.6740000  43.3740000  23.9660000
  20.8010000  42.9660000  25.2800000  19.2340000  42.1330000  25.1620000
  25.9910000  48.4260000  37.0520000  26.4530000  49.5140000  36.2630000
  26.7540000  46.8880000  36.4680000  26.7180000  48.5310000  38.7100000
  26.4130000  46.6740000  35.4560000  27.8390000  46.9980000  36.4700000
  26.4710000  46.0690000  37.1290000  26.3530000  49.4260000  39.2110000
  26.4360000  47.6500000  39.2860000  27.8040000  48.5780000  38.6280000
  22.1190000  25.6480000  27.6810000  21.7940000  24.6460000  28.6360000
  23.8830000  26.0490000  27.8030000  22.0710000  24.9330000  26.0160000
  24.0880000  26.5000000  28.7740000  24.4710000  25.1370000  27.6960000
  24.1520000  26.7490000  27.0120000  21.0520000  24.6300000  25.7790000
  22.4070000  25.6750000  25.2920000  22.7270000  24.0630000  25.9750000
  35.2940000  25.0420000  33.3910000  36.2460000  23.9870000  33.3620000
  33.6250000  24.3450000  33.5170000  35.3980000  25.9070000  34.9810000
  33.3980000  23.7780000  32.6150000  33.5710000  23.6860000  34.3840000
  32.9020000  25.1530000  33.6310000  36.3680000  26.3930000  35.0680000
  34.6090000  26.6560000  35.0390000  35.2770000  25.1890000  35.7930000
  38.6560000  20.5500000  50.6490000  37.5890000  21.3420000  51.1550000
  38.2550000  18.7940000  50.8550000  38.6840000  20.6590000  48.8400000
  38.1980000  18.5560000  51.9170000  37.2940000  18.5830000  50.3840000
  39.0290000  18.1880000  50.3870000  38.9160000  21.6800000  48.5400000
  39.4420000  19.9830000  48.4470000  37.7070000  20.3780000  48.4440000
  35.2330000  24.7930000  29.1330000  34.1500000  23.9560000  28.7510000
  34.7060000  25.8860000  30.4800000  36.4840000  23.8070000  29.9970000
  33.9320000  26.5630000  30.1180000  34.3090000  25.2870000  31.2990000
  35.5590000  26.4640000  30.8340000  36.9120000  23.0780000  29.3100000
  37.2710000  24.4620000  30.3690000  36.0210000  23.2850000  30.8350000
  51.1160000  25.5030000  31.9460000  52.2000000  25.4350000  31.0290000
  49.5820000  25.8440000  31.0430000  50.7510000  23.8430000  32.5760000
  49.6380000  26.8340000  30.5900000  49.4460000  25.0960000  30.2630000
  48.7390000  25.8070000  31.7330000  51.5970000  23.4790000  33.1570000
  49.8650000  23.8800000  33.2080000  50.5700000  23.1680000  31.7380000
  31.8750000  23.6400000  51.3470000  32.2730000  22.9910000  50.1470000
  32.4590000  25.3560000  51.3290000  30.0830000  23.9150000  51.3200000
  33.5490000  25.3700000  51.3430000  32.1010000  25.8520000  50.4270000
  32.0780000  25.8790000  52.2060000  29.5680000  22.9560000  51.3260000
  29.7910000  24.4920000  52.1970000  29.8140000  24.4660000  50.4180000
  19.6970000  49.5670000  37.9460000  20.0180000  49.4820000  36.5640000
  17.9640000  49.0950000  38.1930000  20.5220000  48.2260000  38.8420000
  17.3150000  49.8190000  37.7010000  17.7930000  48.1060000  37.7660000
  17.7420000  49.0730000  39.2590000  21.6010000  48.3620000  38.7890000
  20.2050000  48.2360000  39.8840000  20.2550000  47.2690000  38.3920000
  35.1660000  31.3330000  23.7540000  35.1640000  30.4540000  22.6370000
  34.1840000  30.6080000  25.0950000  36.8070000  31.3280000  24.5240000
  33.1410000  30.5380000  24.7850000  34.5620000  29.6120000  25.3240000
  34.2590000  31.2380000  25.9810000  37.5360000  31.7430000  23.8300000
  36.7840000  31.9300000  25.4320000  37.0870000  30.3050000  24.7760000
  17.6480000  35.9160000  37.3770000  17.3940000  34.5230000  37.5060000
  18.4940000  36.5160000  38.8640000  18.9490000  36.1810000  36.1430000
  17.8300000  36.4240000  39.7230000  19.3930000  35.9230000  39.0350000
  18.7690000  37.5620000  38.7280000  18.5940000  35.8610000  35.1650000
  19.2080000  37.2380000  36.1090000  19.8320000  35.6010000  36.4160000
  51.0910000  23.2250000  48.3910000  52.2030000  22.9650000  49.2380000
  51.2380000  24.8930000  47.6970000  51.2400000  22.2380000  46.8780000
  51.1680000  25.6290000  48.4980000  52.2010000  24.9940000  47.1950000
  50.4360000  25.0590000  46.9780000  51.1720000  21.1790000  47.1260000
  50.4380000  22.5030000  46.1910000  52.2030000  22.4380000  46.4070000
  26.5870000  39.3660000  22.1020000  27.6840000  38.5670000  22.5250000
  25.3550000  38.3150000  21.2860000  25.6380000  39.9050000  23.5480000
  25.7780000  37.9000000  20.3720000  25.0700000  37.5040000  21.9560000
  24.4750000  38.9100000  21.0420000  26.2510000  40.5620000  24.1630000
  24.7480000  40.4410000  23.2200000  25.3410000  39.0340000  24.1330000
  23.5840000  51.6130000  37.4290000  24.0290000  50.6380000  38.3640000
  24.6340000  51.5550000  35.9510000  22.0030000  51.0880000  36.7150000
  25.6490000  51.8510000  36.2140000  24.6430000  50.5410000  35.5520000
  24.2390000  52.2370000  35.1990000  21.2410000  51.0670000  37.4930000
  21.7060000  51.7870000  35.9340000  22.1110000  50.0910000  36.2870000
  48.4000000  43.6110000  23.6940000  49.4540000  44.3050000  23.0390000
  47.8140000  44.5920000  25.1020000  46.9190000  43.6370000  22.6500000
  48.6080000  44.6760000  25.8430000  47.5320000  45.5870000  24.7580000
  46.9480000  44.1030000  25.5490000  47.1080000  43.0760000  21.7360000
  46.0870000  43.1840000  23.1890000  46.6690000  44.6680000  22.3990000
  45.0400000  21.2380000  38.7150000  46.1530000  20.4410000  38.3320000
  44.0600000  21.6520000  37.2470000  43.8450000  20.2140000  39.6150000
  44.6490000  22.2820000  36.5810000  43.7810000  20.7350000  36.7260000
  43.1590000  22.1840000  37.5500000  44.2890000  19.8720000  40.5490000
  42.9520000  20.8000000  39.8300000  43.5740000  19.3510000  39.0060000
  45.9170000  30.2390000  32.6470000  44.8900000  30.8290000  33.4330000
  45.5440000  30.4780000  30.8880000  47.4290000  31.2280000  32.7870000
  44.6360000  29.9330000  30.6310000  45.3990000  31.5400000  30.6890000
  46.3740000  30.1060000  30.2880000  47.7950000  31.1910000  33.8120000
  48.1890000  30.8280000  32.1160000  47.2140000  32.2620000  32.5160000
  20.8710000  51.1490000  41.7740000  21.7110000  52.2950000  41.7790000
  19.7270000  51.2320000  43.1780000  19.6950000  51.2670000  40.4000000
  20.2890000  51.1730000  44.1100000  19.1790000  52.1740000  43.1450000
  19.0240000  50.4010000  43.1240000  20.2340000  51.2330000  39.4550000
  18.9930000  50.4350000  40.4490000  19.1470000  52.2080000  40.4700000
  18.0530000  32.2020000  40.9690000  19.1100000  31.2510000  40.9800000
  18.2110000  33.2970000  42.4060000  18.3260000  33.3930000  39.6310000
  18.0700000  32.7200000  43.3200000  19.2030000  33.7480000  42.4110000
  17.4560000  34.0800000  42.3490000  18.2640000  32.8830000  38.6710000
  17.5670000  34.1730000  39.6780000  19.3130000  33.8420000  39.7400000
  45.6980000  37.6750000  37.9370000  46.4210000  38.8910000  37.8020000
  45.9520000  36.6530000  36.4610000  46.4960000  36.6320000  39.1860000
  45.5190000  37.1520000  35.5940000  47.0210000  36.5090000  36.3000000
  45.4730000  35.6850000  36.6020000  46.4310000  37.1150000  40.1600000
  45.9960000  35.6650000  39.2260000  47.5440000  36.4870000  38.9230000
  41.4180000  39.3030000  23.1310000  40.2560000  40.0730000  23.4080000
  41.5350000  37.9370000  24.3180000  41.1730000  38.3690000  21.5970000
  41.6870000  38.3380000  25.3200000  40.6130000  37.3570000  24.2960000
  42.3740000  37.2960000  24.0510000  41.0800000  39.0600000  20.7610000
  42.0260000  37.7110000  21.4320000  40.2650000  37.7720000  21.6760000
  38.1230000  34.8210000  30.4350000  36.7470000  35.0480000  30.1640000
  38.4870000  35.2880000  32.1480000  38.4360000  33.0370000  30.5200000
  38.3430000  36.3610000  32.2710000  37.8170000  34.7530000  32.8210000
  39.5190000  35.0300000  32.3840000  38.2570000  32.5890000  29.5430000
  39.4700000  32.8630000  30.8160000  37.7680000  32.5860000  31.2540000
  41.3680000  29.5250000  31.6360000  42.7780000  29.3420000  31.6500000
  40.8880000  30.6260000  32.9940000  40.9060000  30.5530000  30.2160000
  41.1060000  30.1450000  33.9470000  41.4490000  31.5580000  32.9210000
  39.8210000  30.8380000  32.9290000  41.1370000  30.0240000  29.2930000
  39.8390000  30.7680000  30.2550000  41.4660000  31.4880000  30.2470000
  31.7180000  29.9780000  22.4010000  32.3970000  31.1910000  22.6980000
  30.0050000  30.0860000  22.9860000  31.4360000  29.8650000  20.6140000
  29.9960000  30.1630000  24.0730000  29.5300000  30.9680000  22.5560000
  29.4600000  29.1940000  22.6790000  32.3930000  29.7930000  20.0980000
  30.8370000  28.9810000  20.3950000  30.9070000  30.7550000  20.2720000
  47.0400000  27.8630000  41.6390000  47.2380000  28.2020000  40.2720000
  45.2830000  27.5230000  41.9290000  47.7380000  26.2210000  41.9610000
  44.7060000  28.4340000  41.7720000  44.9430000  26.7540000  41.2360000
  45.1450000  27.1760000  42.9520000  48.8180000  26.2510000  41.8250000
  47.5080000  25.9220000  42.9830000  47.3050000  25.5000000  41.2670000
  48.1790000  27.8410000  37.4900000  48.4720000  28.9840000  38.2820000
  48.5710000  26.3400000  38.4280000  46.3820000  27.6580000  37.3340000
  49.6440000  26.2950000  38.6120000  48.0400000  26.3580000  39.3800000
  48.2620000  25.4640000  37.8570000  45.9770000  28.5030000  36.7800000
  46.1560000  26.7330000  36.8040000  45.9330000  27.6260000  38.3260000
  51.0460000  44.1800000  46.3040000  52.1480000  44.3090000  47.1920000
  51.1430000  45.4650000  45.0280000  51.2660000  42.7000000  45.2800000
  51.0270000  46.4450000  45.4900000  52.1120000  45.4100000  44.5310000
  50.3510000  45.3110000  44.2970000  51.2330000  41.8130000  45.9100000
  50.4690000  42.6490000  44.5390000  52.2290000  42.7490000  44.7730000
  25.3990000  23.6490000  43.5280000  25.9700000  22.3580000  43.6990000
  25.2540000  24.4640000  45.1410000  26.6030000  24.7410000  42.7270000
  24.5470000  23.9170000  45.7640000  26.2290000  24.4800000  45.6280000
  24.9010000  25.4850000  45.0010000  26.8080000  24.3820000  41.7200000
  26.2000000  25.7520000  42.6780000  27.5280000  24.7480000  43.3050000
  36.3290000  34.9110000  40.3780000  35.1390000  34.1660000  40.1550000
  37.1930000  34.2500000  41.8290000  37.5380000  34.5210000  39.0850000
  36.5830000  34.4080000  42.7190000  37.3660000  33.1830000  41.6930000
  38.1480000  34.7610000  41.9470000  37.1620000  34.8600000  38.1210000
  38.4800000  35.0210000  39.3050000  37.6990000  33.4430000  39.0520000
  32.5550000  47.6550000  44.9930000  31.5170000  47.3300000  44.0790000
  33.5700000  48.9900000  44.3040000  31.8500000  48.5030000  46.4320000
  34.0770000  48.6360000  43.4070000  32.9330000  49.8370000  44.0500000
  34.3100000  49.3010000  45.0410000  31.1950000  47.8210000  46.9720000
  32.6540000  48.8320000  47.0890000  31.2770000  49.3690000  46.0990000
  28.5680000  44.3020000  29.2130000  28.2730000  43.0840000  29.8840000
  28.4150000  44.0570000  27.4230000  27.2210000  45.4850000  29.4870000
  29.1740000  43.3510000  27.0860000  27.4260000  43.6610000  27.1940000
  28.5520000  45.0100000  26.9130000  27.1730000  45.7430000  30.5430000
  27.4030000  46.3840000  28.9000000  26.2760000  45.0370000  29.1790000
  19.2480000  33.8400000  46.7770000  18.5800000  33.5440000  47.9960000
  18.0270000  34.2840000  45.5120000  20.1260000  35.4180000  46.9370000
  17.3990000  33.4200000  45.2930000  17.4050000  35.1010000  45.8780000
  18.5420000  34.5980000  44.6050000  20.9150000  35.3210000  47.6810000
  20.5630000  35.6890000  45.9760000  19.4260000  36.1930000  47.2490000
  30.8840000  25.6900000  36.7530000  29.9170000  25.6810000  37.7950000
  32.5270000  25.3770000  37.4510000  30.6860000  24.2060000  35.7320000
  32.8060000  26.2000000  38.1090000  32.5090000  24.4480000  38.0200000
  33.2550000  25.2940000  36.6440000  29.7200000  24.2360000  35.2290000
  31.4820000  24.1660000  34.9890000  30.7370000  23.3190000  36.3650000
  23.2680000  41.6440000  34.5030000  23.0280000  41.4790000  35.8940000
  24.2220000  43.1620000  34.2300000  24.4720000  40.4080000  33.9470000
  23.6250000  44.0250000  34.5230000  25.1320000  43.1300000  34.8280000
  24.4840000  43.2410000  33.1750000  24.0450000  39.4120000  34.0490000
  24.7240000  40.5910000  32.9030000  25.3740000  40.4800000  34.5550000
  26.0830000  48.4220000  27.4460000  27.0090000  48.9610000  26.5110000
  26.5320000  48.9570000  29.1190000  24.4850000  49.2580000  27.2640000
  27.4980000  48.5300000  29.3910000  26.5960000  50.0450000  29.1470000
  25.7730000  48.6200000  29.8240000  24.0670000  49.0350000  26.2840000
  23.8020000  48.9090000  28.0380000  24.6250000  50.3350000  27.3630000
  44.8360000  43.5170000  37.8280000  44.5640000  42.5880000  36.7870000
  44.9410000  42.6380000  39.4100000  46.5420000  44.1090000  37.6800000
  43.9700000  42.2080000  39.6540000  45.6810000  41.8410000  39.3340000
  45.2380000  43.3340000  40.1940000  46.6530000  44.6730000  36.7550000
  46.7790000  44.7510000  38.5280000  47.2230000  43.2570000  37.6690000
  50.2540000  38.3870000  35.5080000  50.9170000  37.1770000  35.1680000
  51.4250000  39.7670000  35.4060000  49.1090000  38.8430000  34.1790000
  52.2010000  39.6430000  36.1600000  51.8800000  39.7840000  34.4160000
  50.8970000  40.7050000  35.5780000  48.3220000  38.0940000  34.1040000
  48.6680000  39.8150000  34.3970000  49.6510000  38.8950000  33.2350000
  48.8250000  40.8890000  23.9160000  47.9180000  41.4420000  22.9720000
  48.1790000  41.1370000  25.5920000  48.7690000  39.0800000  23.8200000
  48.1450000  42.2030000  25.8150000  47.1730000  40.7210000  25.6590000
  48.8270000  40.6350000  26.3090000  49.1340000  38.7560000  22.8460000
  49.3960000  38.6550000  24.6030000  47.7420000  38.7400000  23.9530000
  30.7630000  42.1510000  51.0760000  30.2450000  42.0780000  49.7550000
  32.1340000  40.9770000  51.2540000  31.6550000  43.7150000  51.2900000
  31.7580000  39.9600000  51.1480000  32.8790000  41.1710000  50.4820000
  32.5890000  41.0970000  52.2360000  30.9570000  44.5460000  51.2080000
  32.1280000  43.7320000  52.2710000  32.4190000  43.8060000  50.5180000
  27.0680000  19.8250000  42.6340000  27.4790000  21.1860000  42.6150000
  27.9610000  18.9060000  41.3520000  27.7230000  19.0160000  44.1180000
  27.6740000  19.2790000  40.3690000  29.0340000  19.0380000  41.4910000
  27.7140000  17.8470000  41.4250000  27.2760000  19.4650000  45.0040000
  27.4850000  17.9540000  44.0880000  28.8050000  19.1440000  44.1540000
  34.2820000  34.5960000  46.3050000  33.0820000  34.5950000  47.0670000
  35.2790000  33.1480000  46.7470000  33.9010000  34.2030000  44.5770000
  35.5980000  33.2280000  47.7860000  34.6830000  32.2440000  46.6190000
  36.1550000  33.0990000  46.1000000  33.2880000  34.9960000  44.1500000
  34.8280000  34.1150000  44.0110000  33.3570000  33.2600000  44.5300000
  22.2540000  46.7640000  25.7980000  23.1850000  46.7890000  26.8720000
  22.5210000  45.2730000  24.8020000  20.5950000  46.4230000  26.4420000
  23.5030000  45.3190000  24.3320000  22.4670000  44.3930000  25.4440000
  21.7510000  45.2070000  24.0330000  20.2760000  47.2460000  27.0800000
  19.8980000  46.3150000  25.6120000  20.6130000  45.5000000  27.0230000
  35.3530000  27.3140000  20.2710000  36.0010000  26.0510000  20.3500000
  34.4300000  27.4230000  18.7150000  33.9830000  27.3670000  21.4570000
  35.1250000  27.4030000  17.8760000  33.7460000  26.5770000  18.6390000
  33.8610000  28.3520000  18.6940000  34.3770000  27.3090000  22.4710000
  33.4320000  28.2980000  21.3340000  33.3160000  26.5240000  21.2780000
  27.4060000  41.4270000  34.1160000  28.6500000  41.8170000  34.6830000
  27.1630000  42.2900000  32.5410000  27.5210000  39.7160000  33.5270000
  27.0730000  43.3600000  32.7220000  28.0160000  42.1020000  31.8890000
  26.2540000  41.9240000  32.0630000  27.6730000  39.0490000  34.3740000
  26.5990000  39.4470000  33.0130000  28.3600000  39.6250000  32.8370000
  41.8230000  18.7870000  29.6580000  42.6230000  17.7890000  29.0370000
  42.5400000  19.2230000  31.2650000  42.0300000  20.3600000  28.7810000
  42.4930000  18.3610000  31.9310000  43.5800000  19.5200000  31.1300000
  41.9800000  20.0500000  31.7000000  41.6400000  20.2660000  27.7690000
  41.4890000  21.1440000  29.3090000  43.0890000  20.6150000  28.7390000
  43.8090000  28.6290000  39.1900000  43.4860000  27.8030000  38.0790000
  44.3380000  30.2590000  38.5960000  42.2890000  29.0890000  40.0640000
  45.2650000  30.1580000  38.0330000  43.5660000  30.6780000  37.9510000
  44.4990000  30.9200000  39.4470000  41.8320000  28.1980000  40.4920000
  42.5270000  29.7940000  40.8600000  41.5930000  29.5530000  39.3650000
  47.5610000  17.5610000  37.4470000  48.1770000  17.4000000  36.1760000
  48.2920000  18.9870000  38.2960000  45.8650000  18.1610000  37.2240000
  49.3410000  18.7850000  38.5080000  48.2140000  19.8680000  37.6590000
  47.7590000  19.1650000  39.2290000  45.2750000  17.4020000  36.7120000
  45.4230000  18.3700000  38.1970000  45.8770000  19.0730000  36.6270000
  38.6560000  50.6210000  32.0760000  39.2470000  51.8230000  32.5490000
  39.7040000  49.8990000  30.7840000  38.7930000  49.3370000  33.3490000
  39.7300000  50.5660000  29.9220000  40.7140000  49.7650000  31.1700000
  39.2980000  48.9330000  30.4850000  38.2050000  49.6240000  34.2200000
  38.4220000  48.3920000  32.9540000  39.8380000  49.2230000  33.6380000
  50.2430000  43.4430000  40.3640000  50.4670000  42.0400000  40.3370000
  51.1590000  44.1740000  41.7480000  51.1030000  44.2200000  38.9700000
  50.7560000  43.8000000  42.6890000  52.2120000  43.9020000  41.6700000
  51.0610000  45.2580000  41.7160000  50.6630000  43.8760000  38.0340000
  51.0070000  45.3020000  39.0410000  52.1580000  43.9470000  38.9960000
  36.9670000  42.1060000  32.6190000  36.5450000  42.8090000  31.4580000
  38.2690000  43.0500000  33.4560000  35.6640000  42.1790000  33.8770000
  39.1490000  43.1040000  32.8160000  37.9100000  44.0590000  33.6630000
  38.5300000  42.5580000  34.3930000  34.7850000  41.6450000  33.5220000
  36.0220000  41.7190000  34.7980000  35.4030000  43.2200000  34.0700000
  24.8400000  38.7000000  43.0700000  25.5590000  39.8620000  42.6790000
  23.7480000  38.1820000  41.7190000  25.9680000  37.2820000  43.1280000
  22.9900000  38.9460000  41.5490000  24.3350000  38.0460000  40.8100000
  23.2650000  37.2420000  41.9820000  26.7090000  37.4390000  43.9100000
  25.4020000  36.3760000  43.3390000  26.4720000  37.1790000  42.1670000
  27.8840000  47.0290000  43.9550000  27.5720000  45.6570000  44.1570000
  28.9210000  47.6200000  45.3190000  29.0510000  47.1870000  42.5770000
  28.3540000  47.5880000  46.2490000  29.8010000  46.9820000  45.4090000
  29.2350000  48.6440000  45.1190000  28.5720000  46.8620000  41.6550000
  29.3600000  48.2270000  42.4800000  29.9260000  46.5660000  42.7690000
  50.3480000  28.7460000  35.7730000  51.5550000  28.7390000  35.0230000
  49.9170000  30.4520000  36.2090000  48.9570000  28.3360000  34.6850000
  50.6750000  30.8590000  36.8790000  49.8710000  31.0570000  35.3030000
  48.9470000  30.4660000  36.7050000  49.0660000  27.3140000  34.3240000
  48.0230000  28.4300000  35.2380000  48.9460000  29.0210000  33.8360000
  46.5970000  25.0100000  30.6560000  47.4020000  24.0950000  31.3880000
  46.9100000  24.8050000  28.8820000  44.8630000  24.4880000  30.7350000
  47.9400000  25.0850000  28.6590000  46.7490000  23.7640000  28.6030000
  46.2300000  25.4420000  28.3180000  44.5100000  24.5520000  31.7630000
  44.2590000  25.1370000  30.1010000  44.7780000  23.4590000  30.3850000
  49.4730000  29.2340000  43.1680000  49.4920000  28.3310000  42.0700000
  47.8050000  29.9170000  43.3600000  49.6170000  28.3050000  44.7180000
  47.5560000  30.5200000  42.4880000  47.0880000  29.1020000  43.4550000
  47.7680000  30.5390000  44.2550000  50.5900000  27.8180000  44.7620000
  49.5120000  28.9860000  45.5610000  48.8310000  27.5500000  44.7620000
  34.8820000  28.8390000  35.2440000  34.5530000  29.8610000  34.3120000
  36.2720000  29.3840000  36.2730000  33.5810000  28.7280000  36.5020000
  37.1590000  29.5030000  35.6520000  36.0260000  30.3380000  36.7400000
  36.4650000  28.6410000  37.0450000  32.6510000  28.4040000  36.0370000
  33.8750000  28.0090000  37.2660000  33.4360000  29.7060000  36.9620000
  50.0450000  32.4530000  28.8650000  50.3930000  33.1850000  30.0330000
  48.5090000  33.1200000  28.1690000  51.2010000  32.8590000  27.5300000
  47.6900000  32.9530000  28.8690000  48.6250000  34.1890000  27.9940000
  48.2910000  32.6190000  27.2270000  52.2000000  32.5170000  27.7960000
  50.8820000  32.3680000  26.6110000  51.2160000  33.9380000  27.3770000
  27.3220000  40.0230000  38.4910000  27.5390000  41.3400000  38.9790000
  26.3610000  40.0980000  36.9560000  28.8810000  39.3490000  37.8560000
  25.3680000  40.4940000  37.1670000  26.8660000  40.7490000  36.2430000
  26.2720000  39.0970000  36.5340000  29.5900000  39.2390000  38.6750000
  28.6980000  38.3760000  37.4010000  29.2920000  40.0270000  37.1090000
  23.8710000  36.3620000  44.9180000  22.6460000  37.0010000  45.2520000
  24.5380000  35.5330000  46.3860000  23.5360000  34.9240000  43.8670000
  24.7970000  36.2770000  47.1390000  23.7890000  34.8530000  46.7910000
  25.4290000  34.9680000  46.1110000  23.1180000  35.2570000  42.9180000
  24.4640000  34.3830000  43.6850000  22.8240000  34.2670000  44.3660000
  34.0660000  30.6250000  49.1250000  32.9750000  31.2170000  48.4320000
  33.4410000  29.3790000  50.2840000  34.9980000  29.5620000  47.9890000
  32.8420000  29.8660000  51.0540000  32.8250000  28.6590000  49.7460000
  34.2810000  28.8620000  50.7490000  35.4490000  30.1720000  47.2080000
  35.7790000  29.0390000  48.5400000  34.3230000  28.8350000  47.5370000
  46.2780000  35.9110000  22.5760000  46.9110000  34.6500000  22.4080000
  44.4800000  35.7020000  22.4820000  46.4460000  36.4470000  24.2990000
  44.2030000  35.3730000  21.4810000  44.1630000  34.9560000  23.2100000
  43.9920000  36.6520000  22.7000000  47.4970000  36.6200000  24.5270000
  45.8850000  37.3690000  24.4500000  46.0540000  35.6730000  24.9600000
  48.1730000  50.1510000  43.7520000  47.8350000  49.2640000  44.8100000
  49.4450000  51.3120000  44.3200000  49.1080000  49.2510000  42.4850000
  49.0350000  51.9450000  45.1060000  50.2970000  50.7550000  44.7100000
  49.7690000  51.9320000  43.4840000  48.4710000  48.4930000  42.0330000
  49.4440000  49.9490000  41.7190000  49.9730000  48.7720000  42.9440000
  17.4910000  38.6410000  43.9840000  17.4000000  37.7250000  45.0670000
  18.6030000  40.0000000  44.4340000  18.4390000  37.8890000  42.6340000
  18.1690000  40.5680000  45.2570000  19.5660000  39.5940000  44.7430000
  18.7440000  40.6540000  43.5740000  17.8950000  37.0320000  42.2410000
  18.5860000  38.6220000  41.8420000  19.4090000  37.5620000  43.0100000
  21.9040000  33.5130000  35.9740000  20.4830000  33.5500000  35.9400000
  22.4510000  32.6770000  37.4870000  22.5080000  32.3430000  34.7290000
  22.1580000  33.2670000  38.3550000  21.9890000  31.6920000  37.5440000
  23.5350000  32.5690000  37.4700000  22.2530000  32.7050000  33.7340000
  23.5900000  32.2470000  34.8150000  22.0450000  31.3690000  34.8900000
  37.5980000  24.3840000  23.6630000  36.7730000  23.2300000  23.5770000
  38.7220000  24.2190000  25.0770000  38.7960000  24.3740000  22.3030000
  38.1450000  24.2080000  26.0010000  39.2820000  23.2890000  24.9880000
  39.4140000  25.0600000  25.0900000  38.2710000  24.4660000  21.3540000
  39.4860000  25.2090000  22.4200000  39.3550000  23.4370000  22.3180000
  48.6360000  51.9000000  28.2970000  47.2840000  51.9680000  27.8630000
  48.6920000  51.3070000  30.0100000  49.4710000  50.5270000  27.4590000
  48.2160000  52.0370000  30.6640000  48.1630000  50.3560000  30.0820000
  49.7290000  51.1680000  30.3120000  49.5220000  50.7300000  26.3900000
  50.4800000  50.4180000  27.8570000  48.9140000  49.6050000  27.6270000
  34.7000000  48.7270000  25.1180000  35.5310000  48.6320000  26.2670000
  34.9530000  50.3350000  24.3200000  35.3330000  47.6270000  23.8230000
  34.6150000  51.1290000  24.9850000  36.0140000  50.4700000  24.1040000
  34.3860000  50.3730000  23.3910000  35.2520000  46.5930000  24.1520000
  34.7510000  47.7660000  22.9120000  36.3780000  47.8640000  23.6240000
  25.6040000  31.0170000  28.8830000  25.3080000  31.3760000  27.5400000
  26.0780000  29.2680000  28.9510000  27.1660000  31.7880000  29.3840000
  25.2270000  28.6490000  28.6690000  26.9020000  29.0880000  28.2600000
  26.3920000  29.0160000  29.9630000  27.0510000  32.8710000  29.3940000
  27.4400000  31.4420000  30.3800000  27.9500000  31.5140000  28.6770000
  22.1270000  42.8940000  47.6900000  23.5330000  43.0980000  47.7280000
  21.7090000  41.8300000  46.2830000  21.6370000  41.8140000  49.0610000
  21.9500000  42.3440000  45.3540000  22.2820000  40.9040000  46.3450000
  20.6440000  41.5990000  46.3070000  21.8290000  42.3170000  50.0080000
  20.5750000  41.5840000  48.9810000  22.2120000  40.8890000  49.0190000
  31.7210000  37.7770000  50.3850000  33.1040000  37.6820000  50.6980000
  31.4590000  37.3000000  48.6560000  30.8190000  36.4450000  51.2210000
  31.9520000  38.0180000  48.0010000  31.8770000  36.3080000  48.4850000
  30.3910000  37.2850000  48.4410000  30.8810000  36.5850000  52.3000000
  29.7750000  36.4620000  50.9110000  31.2610000  35.4840000  50.9550000
  17.3940000  50.3990000  21.9090000  17.5060000  51.0350000  23.1750000
  18.5510000  51.1670000  20.7420000  18.1010000  48.7320000  22.0050000
  18.2600000  52.2030000  20.5710000  19.5580000  51.1370000  21.1580000
  18.5300000  50.6220000  19.7990000  17.5080000  48.1240000  22.6860000
  18.0980000  48.2780000  21.0150000  19.1260000  48.7930000  22.3720000
  29.5210000  50.6300000  31.5360000  28.7910000  51.7750000  31.1150000
  30.8940000  50.3340000  30.3890000  30.4470000  51.0230000  33.0440000
  30.4980000  50.0780000  29.4060000  31.5030000  51.2340000  30.3120000
  31.5060000  49.5120000  30.7600000  29.7510000  51.2340000  33.8540000
  31.0760000  50.1760000  33.3150000  31.0740000  51.8980000  32.8680000
  31.9200000  32.6480000  20.7500000  31.2050000  32.8850000  21.9560000
  31.5440000  33.9600000  19.5570000  33.6840000  32.9620000  21.0220000
  30.4910000  33.9110000  19.2820000  31.7560000  34.9300000  20.0060000
  32.1590000  33.8290000  18.6680000  34.0770000  32.2400000  21.7360000
  34.2200000  32.8690000  20.0780000  33.8170000  33.9710000  21.4150000
  33.0880000  49.4380000  41.0020000  33.4030000  48.0540000  40.9270000
  32.9130000  50.1100000  39.3280000  31.3900000  49.6400000  41.6040000
  33.8720000  50.0610000  38.8140000  32.1760000  49.5250000  38.7770000
  32.5840000  51.1470000  39.3860000  31.3200000  49.2720000  42.6270000
  31.1180000  50.6940000  41.5770000  30.7090000  49.0730000  40.9680000
  37.8990000  37.0480000  46.3640000  38.9620000  37.0140000  47.3070000
  38.5750000  37.3120000  44.7020000  37.2140000  35.3810000  46.1660000
  39.0370000  38.2970000  44.6500000  39.3230000  36.5480000  44.4890000
  37.7710000  37.2480000  43.9690000  36.7580000  35.0610000  47.1010000
  36.4610000  35.3890000  45.3780000  38.0120000  34.6890000  45.8960000
  46.5010000  35.3740000  43.9440000  45.8660000  34.7730000  45.0650000
  45.5820000  34.9630000  42.4360000  46.2430000  37.1680000  43.9940000
  45.6380000  33.8900000  42.2570000  44.5390000  35.2570000  42.5550000
  46.0150000  35.4970000  41.5910000  46.7440000  37.5840000  44.8670000
  46.6510000  37.6190000  43.0910000  45.1750000  37.3800000  44.0550000
  35.3620000  51.0790000  45.7910000  36.2270000  52.2030000  45.8850000
  35.5780000  50.0260000  47.2520000  33.6480000  51.6130000  46.0360000
  36.5870000  49.6130000  47.2570000  35.4240000  50.6200000  48.1530000
  34.8520000  49.2140000  47.2240000  33.3520000  52.2730000  45.2220000
  32.9940000  50.7420000  46.0540000  33.5650000  52.1470000  46.9830000
  29.0950000  33.4950000  44.0070000  27.9950000  34.3720000  44.2080000
  28.9910000  32.7640000  42.3510000  30.6160000  34.4650000  43.8290000
  28.1050000  32.1320000  42.2870000  28.9250000  33.5580000  41.6070000
  29.8800000  32.1630000  42.1630000  30.8280000  34.9840000  44.7630000
  31.4450000  33.8010000  43.5850000  30.4900000  35.1960000  43.0290000
  24.2050000  43.1320000  50.6490000  23.3250000  42.5700000  51.6140000
  23.4300000  44.5900000  49.9010000  25.6060000  43.9140000  51.4920000
  22.5450000  44.2860000  49.3420000  23.1400000  45.2890000  50.6860000
  24.1380000  45.0720000  49.2290000  26.1910000  43.1540000  52.0080000
  26.2330000  44.4220000  50.7600000  25.2350000  44.6400000  52.2170000
  44.6080000  41.3540000  19.6500000  44.3040000  41.8690000  20.9400000
  43.7300000  42.3180000  18.3910000  46.3220000  41.7640000  19.2250000
  42.6560000  42.1790000  18.5100000  43.9740000  43.3740000  18.5070000
  44.0330000  41.9820000  17.4000000  46.9990000  41.2520000  19.9070000
  46.5280000  41.4490000  18.2030000  46.4700000  42.8410000  19.3090000
  42.3520000  47.2440000  48.3540000  42.1390000  48.6130000  48.0360000
  41.1230000  46.7090000  49.5750000  41.8690000  46.2130000  46.9440000
  41.2780000  47.2500000  50.5090000  40.1220000  46.9170000  49.1970000
  41.2290000  45.6390000  49.7520000  42.5260000  46.4180000  46.1010000
  41.9470000  45.1610000  47.2200000  40.8390000  46.4380000  46.6650000
  33.2620000  25.7370000  24.3480000  33.2520000  25.1980000  23.0330000
  31.6320000  26.4330000  24.7280000  33.3190000  24.3850000  25.5540000
  31.4360000  27.2800000  24.0710000  30.8670000  25.6710000  24.5750000
  31.6110000  26.7640000  25.7660000  34.2610000  23.8480000  25.4560000
  33.2350000  24.7930000  26.5610000  32.4910000  23.7000000  25.3710000
  32.8850000  45.4680000  36.4380000  32.1880000  46.6730000  36.7270000
  34.3960000  45.8530000  35.5130000  33.6070000  44.8070000  37.9630000
  34.1320000  46.2730000  34.5420000  34.9900000  46.5770000  36.0720000
  34.9760000  44.9410000  35.3700000  32.8100000  44.5210000  38.6490000
  34.2160000  43.9350000  37.7290000  34.2300000  45.5690000  38.4310000
  33.1470000  38.2790000  18.1640000  32.4300000  39.4960000  18.3140000
  34.1290000  37.9690000  19.6570000  31.9940000  36.8830000  18.2490000
  34.8910000  38.7420000  19.7580000  33.4770000  37.9860000  20.5300000
  34.6080000  36.9930000  19.5800000  31.3120000  36.9220000  17.4000000
  32.5520000  35.9480000  18.2250000  31.4220000  36.9400000  19.1750000
  26.0680000  23.0300000  49.9240000  26.7720000  24.2590000  50.0480000
  26.6680000  22.1350000  48.4650000  26.5990000  21.8940000  51.2330000
  26.4240000  22.7000000  47.5660000  27.7500000  22.0130000  48.5340000
  26.1950000  21.1550000  48.4210000  26.3090000  22.2960000  52.2030000
  26.1280000  20.9230000  51.0850000  27.6830000  21.7810000  51.1980000
  39.5510000  40.5660000  50.7140000  40.7020000  40.7300000  51.5310000
  39.7790000  41.4680000  49.1590000  39.4910000  38.8650000  50.0890000
  39.8370000  42.5370000  49.3630000  40.7020000  41.1400000  48.6810000
  38.9370000  41.2690000  48.4960000  39.3550000  38.1760000  50.9210000
  38.6600000  38.7630000  49.3920000  40.4250000  38.6340000  49.5750000
  21.0690000  21.3040000  25.8320000  21.1430000  22.4260000  24.9630000
  20.8730000  21.8760000  27.5410000  19.4830000  20.4590000  25.5960000
  21.7660000  22.4200000  27.8480000  20.0070000  22.5350000  27.6060000
  20.7260000  21.0180000  28.1970000  19.4360000  20.0470000  24.5890000
  19.3880000  19.6540000  26.3240000  18.6680000  21.1710000  25.7340000
  42.7980000  39.8420000  37.8770000  43.0570000  41.2390000  37.9020000
  43.6460000  39.0960000  36.4580000  43.6870000  39.0380000  39.2360000
  43.2200000  39.4850000  35.5340000  44.7080000  39.3420000  36.5000000
  43.5230000  38.0140000  36.4900000  43.2890000  39.3860000  40.1880000
  43.5630000  37.9580000  39.1640000  44.7470000  39.2850000  39.1740000
  29.7490000  27.7080000  50.7990000  30.1170000  26.7960000  51.8260000
  28.5160000  26.9350000  49.7180000  28.7550000  29.0470000  51.5080000
  28.9640000  26.0870000  49.2020000  27.6720000  26.5910000  50.3180000
  28.1670000  27.6640000  48.9870000  29.3640000  29.6250000  52.2020000
  28.3980000  29.6970000  50.7100000  27.9020000  28.6250000  52.0400000
  42.5320000  36.1180000  42.2990000  43.2910000  36.3670000  41.1240000
  42.0380000  37.6950000  43.0460000  40.9050000  35.4620000  41.8400000
  42.9250000  38.2300000  43.3850000  41.5110000  38.2970000  42.3060000
  41.3820000  37.5050000  43.8940000  41.0260000  34.4900000  41.3630000
  40.2910000  35.3560000  42.7330000  40.4200000  36.1480000  41.1460000
  42.5130000  19.5240000  24.7850000  42.4410000  20.8690000  25.2410000
  41.9130000  18.4130000  26.0860000  41.2450000  19.2460000  23.5200000
  42.5820000  18.4620000  26.9440000  40.9110000  18.7170000  26.3890000
  41.8830000  17.3920000  25.7050000  41.4620000  19.8580000  22.6460000
  41.2400000  18.1940000  23.2360000  40.2680000  19.5180000  23.9190000
  38.7050000  24.7150000  34.8240000  38.4300000  24.1980000  33.5290000
  40.2580000  24.0110000  35.4390000  39.1790000  26.4600000  34.6900000
  40.1410000  22.9370000  35.5770000  41.0530000  24.1990000  34.7160000
  40.5160000  24.4750000  36.3900000  38.3340000  27.0400000  34.3220000
  39.4760000  26.8320000  35.6690000  40.0140000  26.5570000  33.9960000
  38.6920000  26.7620000  42.9660000  38.7260000  28.1550000  43.2460000
  40.2460000  26.2680000  42.1740000  38.8160000  25.8310000  44.5160000
  40.3310000  26.7550000  41.2030000  41.0850000  26.5650000  42.8030000
  40.2580000  25.1860000  42.0410000  37.9350000  26.0230000  45.1270000
  38.8810000  24.7660000  44.2950000  39.7080000  26.1440000  45.0580000
  23.0260000  36.8910000  28.5730000  24.3090000  36.7880000  27.9680000
  23.0120000  38.2920000  29.7230000  21.8250000  37.4750000  27.3470000
  23.7020000  38.0960000  30.5440000  23.3190000  39.1960000  29.1980000
  22.0050000  38.4260000  30.1190000  21.7140000  36.7280000  26.5620000
  20.8630000  37.6400000  27.8310000  22.1760000  38.4100000  26.9110000
  25.4530000  39.6980000  44.9390000  24.0410000  39.8600000  44.9580000
  26.2430000  41.3170000  44.7360000  26.0340000  39.2680000  46.6010000
  25.9880000  41.7270000  43.7590000  25.8920000  41.9930000  45.5160000
  27.3240000  41.2050000  44.8120000  25.6360000  38.2940000  46.8850000
  27.1230000  39.2320000  46.6080000  25.6910000  40.0200000  47.3120000
  36.8090000  50.5780000  44.2120000  36.5060000  49.3990000  44.9450000
  38.6080000  50.7630000  44.0830000  36.3900000  50.3280000  42.4660000
  39.0300000  50.9250000  45.0750000  39.0360000  49.8590000  43.6500000
  38.8410000  51.6150000  43.4450000  35.3140000  50.1960000  42.3650000
  36.7060000  51.1970000  41.8890000  36.9020000  49.4400000  42.0930000
  43.8720000  47.2810000  36.4960000  43.6250000  48.3690000  35.6160000
  45.5350000  47.4380000  37.2000000  42.8730000  47.4770000  37.9960000
  46.2770000  47.3410000  36.4080000  45.6370000  48.4140000  37.6750000
  45.6910000  46.6550000  37.9420000  41.8160000  47.4080000  37.7410000
  43.1280000  46.6930000  38.7080000  43.0750000  48.4520000  38.4420000
  43.0200000  24.8160000  40.5110000  43.0140000  26.2170000  40.2740000
  44.4240000  24.0620000  39.6460000  43.4980000  24.4960000  42.2300000
  44.2900000  24.1720000  38.5700000  45.3460000  24.5600000  39.9490000
  44.4820000  23.0050000  39.9000000  42.7400000  24.8980000  42.9000000
  43.5910000  23.4220000  42.3880000  44.4550000  24.9760000  42.4370000
  28.8720000  45.0330000  45.8150000  27.8720000  44.0380000  45.9930000
  30.0610000  44.9460000  47.1800000  29.9450000  44.5690000  44.4290000
  29.5630000  45.2040000  48.1140000  30.4610000  43.9340000  47.2500000
  30.8760000  45.6460000  46.9970000  29.3690000  44.5710000  43.5060000
  30.7640000  45.2830000  44.3490000  30.3500000  43.5710000  44.6020000
  40.4160000  39.4210000  36.6980000  40.6800000  39.2880000  38.0880000
  38.6690000  39.0540000  36.3770000  40.4610000  41.1740000  36.2400000
  38.4680000  38.0090000  36.6090000  38.0440000  39.6910000  37.0020000
  38.4460000  39.2440000  35.3270000  41.4690000  41.5620000  36.3800000
  40.1700000  41.2850000  35.1960000  39.7680000  41.7330000  36.8700000
  36.7390000  40.0540000  25.6390000  36.9530000  38.6780000  25.3520000
  35.4960000  40.7220000  24.4990000  35.8470000  40.2130000  27.2090000
  35.8850000  40.6970000  23.4820000  34.5900000  40.1190000  24.5570000
  35.2660000  41.7500000  24.7760000  36.4720000  39.8440000  28.0210000
  35.6040000  41.2610000  27.3840000  34.9270000  39.6300000  27.1650000
  43.5120000  48.5260000  26.0530000  42.9940000  49.4740000  25.1300000
  42.1490000  47.7950000  26.9990000  44.0930000  47.0630000  25.1530000
  41.6780000  48.5640000  27.6110000  41.4130000  47.3780000  26.3120000
  42.5350000  47.0050000  27.6410000  44.9340000  47.3360000  24.5180000
  44.4070000  46.3000000  25.8650000  43.2840000  46.6720000  24.5350000
  22.8230000  38.9600000  48.1550000  23.6470000  39.2220000  47.0260000
  21.9740000  37.3750000  47.9290000  23.8650000  38.5610000  49.5840000
  21.2890000  37.4460000  47.0840000  22.7090000  36.5930000  47.7360000
  21.4140000  37.1310000  48.8320000  24.4590000  39.4320000  49.8560000
  23.2350000  38.2730000  50.4240000  24.5290000  37.7350000  49.3290000
  26.5180000  20.3190000  34.5770000  27.8480000  20.8190000  34.5630000
  25.7990000  20.4680000  32.9190000  26.5530000  18.5150000  34.7470000
  25.7070000  21.5210000  32.6550000  26.4450000  19.9670000  32.1970000
  24.8140000  20.0020000  32.9080000  26.9710000  18.2480000  35.7170000
  25.5390000  18.1230000  34.6670000  27.1700000  18.0870000  33.9560000
  40.6660000  23.8150000  48.2950000  39.2470000  23.9070000  48.3060000
  41.2220000  22.8840000  49.7480000  41.1880000  22.6870000  46.9770000
  40.9760000  23.4400000  50.6530000  40.7230000  21.9150000  49.7720000
  42.3000000  22.7360000  49.6940000  40.9200000  23.1080000  46.0090000
  42.2670000  22.5450000  47.0260000  40.6910000  21.7250000  47.1040000
  42.1560000  32.9020000  45.2740000  41.7230000  33.4560000  44.0390000
  41.2360000  31.3750000  45.6060000  43.8280000  32.2290000  45.0820000
  40.1820000  31.6090000  45.7490000  41.3460000  30.6950000  44.7610000
  41.6300000  30.9020000  46.5050000  44.5250000  33.0400000  44.8710000
  44.1250000  31.7250000  46.0010000  43.8410000  31.5160000  44.2570000
  27.2710000  39.8830000  28.5530000  27.6050000  41.2630000  28.5950000
  26.5350000  39.3920000  30.1360000  25.8500000  39.6380000  27.4540000
  27.2790000  39.4840000  30.9270000  25.6870000  40.0390000  30.3580000
  26.1960000  38.3580000  30.0740000  26.1300000  39.8960000  26.4340000
  25.5370000  38.5950000  27.4920000  25.0270000  40.2750000  27.7770000
  33.3890000  41.7540000  48.4290000  33.7040000  42.5060000  47.2650000
  31.9750000  40.6720000  48.0870000  34.6780000  40.5110000  48.7130000
  31.0920000  41.2790000  47.8890000  32.1940000  40.0540000  47.2150000
  31.7910000  40.0310000  48.9490000  35.6200000  41.0080000  48.9370000
  34.3930000  39.8760000  49.5510000  34.7950000  39.8980000  47.8190000
  42.1840000  19.2840000  36.2980000  42.4440000  17.8970000  36.4670000
  41.2230000  19.5380000  34.7820000  40.9740000  19.8270000  37.5340000
  41.8230000  19.2510000  33.9190000  40.3210000  18.9270000  34.8170000
  40.9460000  20.5890000  34.6990000  41.4050000  19.7350000  38.5300000
  40.7070000  20.8670000  37.3490000  40.0810000  19.2060000  37.4660000
  32.3790000  22.1040000  29.1470000  31.0830000  21.5200000  29.1340000
  33.2650000  21.5770000  30.6390000  33.4070000  21.3220000  27.8750000
  32.7620000  21.9740000  31.5200000  33.2770000  20.4880000  30.6870000
  34.2880000  21.9500000  30.6040000  33.0010000  21.5460000  26.8900000
  34.4250000  21.7050000  27.9440000  33.4150000  20.2420000  28.0270000
  24.5390000  34.3110000  40.5500000  25.1250000  34.9620000  41.6690000
  25.7660000  33.2280000  39.7700000  23.3450000  33.0750000  41.1270000
  26.5760000  33.8300000  39.3610000  26.1670000  32.5390000  40.5140000
  25.2930000  32.6610000  38.9690000  22.5210000  33.5740000  41.6340000
  22.9630000  32.5140000  40.2750000  23.8360000  32.3910000  41.8200000
  45.8250000  37.9590000  21.8440000  47.1870000  38.3660000  21.8570000
  44.8100000  39.2200000  22.6600000  45.1770000  38.0740000  20.1550000
  45.0810000  39.2800000  23.7130000  44.9800000  40.1860000  22.1850000
  43.7570000  38.9520000  22.5700000  45.6970000  37.3620000  19.5160000
  44.1110000  37.8490000  20.1590000  45.3330000  39.0840000  19.7740000
  43.5020000  25.7450000  51.6990000  43.4780000  24.7080000  50.7270000
  45.0260000  26.7100000  51.5170000  42.2740000  27.0070000  51.2670000
  45.8850000  26.0800000  51.7470000  45.1060000  27.0720000  50.4920000
  45.0030000  27.5580000  52.2010000  41.2750000  26.5790000  51.3270000
  42.3540000  27.8440000  51.9600000  42.4570000  27.3590000  50.2510000
  48.3670000  44.4090000  44.9070000  47.1340000  44.5040000  44.2060000
  48.3620000  45.5710000  46.2990000  48.4310000  42.8370000  45.8070000
  48.3240000  46.5920000  45.9200000  47.4900000  45.3840000  46.9250000
  49.2680000  45.4350000  46.8890000  48.4390000  42.0110000  45.0970000
  49.3340000  42.8030000  46.4150000  47.5570000  42.7520000  46.4530000
  39.7080000  22.5990000  31.0760000  41.0780000  22.7670000  30.7360000
  38.9650000  21.3510000  29.9900000  39.5800000  21.7470000  32.6710000
  38.9640000  21.7150000  28.9630000  39.5440000  20.4290000  30.0470000
  37.9410000  21.1560000  30.3080000  39.9960000  22.3790000  33.4550000
  38.5340000  21.5380000  32.8890000  40.1360000  20.8100000  32.6280000
  22.6350000  29.9250000  25.1910000  23.8400000  29.4970000  24.5720000
  22.5360000  29.2330000  26.8640000  22.7500000  31.6900000  25.5850000
  22.4600000  28.1470000  26.8050000  23.4330000  29.5040000  27.4220000
  21.6580000  29.6320000  27.3710000  22.8200000  32.2660000  24.6630000
  21.8640000  31.9980000  26.1400000  23.6380000  31.8700000  26.1920000
  41.4650000  44.3900000  35.5320000  40.3380000  43.5640000  35.7930000
  42.4090000  44.6260000  37.0630000  42.6770000  43.4660000  34.5510000
  41.8050000  45.1800000  37.7810000  42.6690000  43.6540000  37.4820000
  43.3190000  45.1830000  36.8450000  42.2560000  43.2370000  33.5740000
  43.5780000  44.0670000  34.4280000  42.9290000  42.5380000  35.0650000
  19.3630000  40.3890000  38.5020000  20.1240000  39.2690000  38.9340000
  18.1620000  39.8570000  37.2520000  18.2370000  40.9010000  39.8270000
  18.6900000  39.5090000  36.3650000  17.5550000  39.0460000  37.6540000
  17.5190000  40.6960000  36.9870000  18.8140000  41.2570000  40.6790000
  17.5900000  41.7000000  39.4650000  17.6250000  40.0510000  40.1320000
  42.7000000  25.8390000  37.4770000  42.5230000  24.4410000  37.2870000
  42.6670000  26.6760000  35.8690000  41.2080000  26.5400000  38.2310000
  43.5220000  26.3560000  35.2740000  41.7450000  26.4210000  35.3460000
  42.7120000  27.7540000  36.0210000  41.0770000  26.1280000  39.2300000
  41.3080000  27.6230000  38.2940000  40.3410000  26.2910000  37.6190000
  34.4470000  36.6080000  22.8990000  33.8180000  36.1580000  21.7060000
  35.4200000  38.0960000  22.5460000  33.1980000  37.3030000  24.0150000
  36.2350000  37.8460000  21.8680000  34.7790000  38.8460000  22.0810000
  35.8270000  38.4930000  23.4750000  32.5130000  36.5170000  24.3290000
  33.6890000  37.7290000  24.8890000  32.6410000  38.0830000  23.4960000
  52.1410000  29.1460000  30.7330000  51.8640000  27.7590000  30.5940000
  51.5660000  30.0290000  29.2570000  51.0370000  29.8610000  31.9800000
  52.1430000  29.7050000  28.3920000  50.5100000  29.8100000  29.0920000
  51.6950000  31.1010000  29.4020000  51.2560000  29.4240000  32.9540000
  51.1860000  30.9390000  32.0230000  50.0010000  29.6490000  31.7130000
  36.1400000  37.2840000  47.6630000  36.8080000  38.4570000  48.1070000
  34.6700000  37.0020000  48.6860000  35.3550000  37.6060000  46.0610000
  34.9750000  36.7880000  49.7100000  34.0420000  37.8920000  48.6720000
  34.1090000  36.1560000  48.2890000  36.1210000  37.8030000  45.3130000
  34.7680000  36.7380000  45.7630000  34.7000000  38.4740000  46.1450000
  47.3340000  43.7240000  40.7340000  48.3290000  44.4860000  40.0640000
  48.0750000  42.8790000  42.1570000  46.1900000  44.8410000  41.5890000
  48.8080000  42.1520000  41.8080000  48.5670000  43.6120000  42.7980000
  47.2960000  42.3690000  42.7230000  45.6500000  45.4390000  40.8560000
  45.4820000  44.2570000  42.1750000  46.7530000  45.4990000  42.2510000
  19.6520000  38.3350000  24.7850000  18.6330000  37.3600000  24.6060000
  21.1530000  37.8080000  23.9160000  19.2390000  39.8220000  23.8340000
  21.5400000  36.8990000  24.3760000  20.9160000  37.6130000  22.8690000
  21.9030000  38.5960000  23.9770000  18.3340000  40.2730000  24.2380000
  20.0610000  40.5340000  23.8980000  19.0750000  39.5520000  22.7900000
  45.4390000  39.3390000  45.0970000  44.4630000  39.6040000  46.0970000
  45.4030000  40.6570000  43.8530000  47.0960000  39.5970000  45.7860000
  44.4460000  40.6410000  43.3330000  45.5330000  41.6220000  44.3440000
  46.2090000  40.5030000  43.1370000  47.2820000  38.8660000  46.5710000
  47.8390000  39.4830000  44.9980000  47.1630000  40.6020000  46.2030000
  17.7660000  47.8400000  43.7370000  18.0510000  48.9980000  44.5100000
  18.0730000  48.1920000  41.9850000  19.0400000  46.5850000  44.0360000
  17.3710000  48.9490000  41.6380000  19.0920000  48.5580000  41.8620000
  17.9420000  47.2800000  41.4040000  18.9920000  46.2580000  45.0740000
  18.8730000  45.7340000  43.3780000  20.0230000  47.0110000  43.8350000
  32.3710000  41.1170000  20.5790000  32.1250000  39.7210000  20.4810000
  32.8780000  41.5230000  22.2720000  33.8940000  41.5270000  19.6850000
  32.0530000  41.3280000  22.9560000  33.7340000  40.9090000  22.5510000
  33.1540000  42.5760000  22.3250000  33.7550000  41.3330000  18.6220000
  34.1310000  42.5790000  19.8350000  34.7120000  40.9130000  20.0620000
  36.5210000  34.0020000  23.5640000  35.8180000  33.9310000  22.3300000
  37.2800000  35.6400000  23.7330000  35.3350000  34.0590000  24.9330000
  38.0380000  35.7710000  22.9620000  36.5140000  36.4080000  23.6240000
  37.7420000  35.7250000  24.7160000  34.7790000  33.1230000  24.9720000
  35.8700000  34.2040000  25.8710000  34.6420000  34.8860000  24.7800000
  29.0620000  39.3140000  18.5780000  30.3850000  38.8440000  18.7970000
  28.1130000  39.1870000  20.1170000  29.0870000  41.1140000  18.3690000
  28.0030000  38.1380000  20.3920000  28.6370000  39.7170000  20.9120000
  27.1280000  39.6300000  19.9740000  29.6370000  41.3680000  17.4630000
  28.0660000  41.4860000  18.2910000  29.5750000  41.5730000  19.2290000
  35.5880000  21.6990000  36.3780000  34.6130000  22.0370000  35.4000000
  37.2250000  22.2290000  35.8060000  35.3940000  22.7770000  37.8220000
  37.5010000  21.6620000  34.9170000  37.1990000  23.2920000  35.5650000
  37.9590000  22.0530000  36.5920000  34.4330000  22.5820000  38.2960000
  36.1960000  22.5810000  38.5330000  35.4370000  23.8200000  37.5070000
  47.9160000  50.3500000  24.9360000  48.4610000  50.7180000  23.6760000
  46.1230000  50.6240000  24.9210000  47.9600000  48.5460000  25.1090000
  45.9190000  51.6890000  24.8190000  45.6810000  50.0870000  24.0810000
  45.6930000  50.2580000  25.8520000  48.9940000  48.2080000  25.1340000
  47.4600000  48.2580000  26.0340000  47.4480000  48.0870000  24.2630000
  30.0240000  37.2820000  31.1990000  29.9730000  38.2760000  32.2150000
  28.5530000  36.2280000  31.3100000  29.7400000  38.0540000  29.5840000
  28.5690000  35.6790000  32.2510000  27.6580000  36.8490000  31.2680000
  28.5470000  35.5250000  30.4780000  30.5570000  38.7380000  29.3590000
  29.6900000  37.2820000  28.8160000  28.8000000  38.6060000  29.6050000
  36.9250000  19.0230000  45.1030000  36.8980000  20.4420000  45.0220000
  38.5810000  18.4780000  45.6030000  35.9650000  18.4820000  46.5420000
  39.2990000  18.7360000  44.8250000  38.8600000  18.9730000  46.5330000
  38.5780000  17.3990000  45.7530000  34.9180000  18.7420000  46.4000000
  36.0600000  17.4030000  46.6570000  36.3430000  18.9760000  47.4380000
  30.4720000  27.2790000  28.6500000  31.6160000  26.5740000  28.1900000
  29.9660000  28.4920000  27.4010000  29.0320000  26.1780000  28.6250000
  30.7440000  29.2460000  27.2900000  29.8110000  27.9870000  26.4470000
  29.0370000  28.9690000  27.7130000  29.1790000  25.3700000  29.3400000
  28.1380000  26.7420000  28.8920000  28.9120000  25.7600000  27.6250000
  48.8960000  40.9730000  39.2190000  48.4500000  42.2950000  39.4890000
  47.7950000  39.7860000  40.0360000  48.5680000  40.5670000  37.4830000
  47.8730000  39.9010000  41.1170000  46.7670000  39.9710000  39.7250000
  48.0820000  38.7730000  39.7560000  49.1670000  41.2090000  36.8400000
  48.8260000  39.5250000  37.2990000  47.5110000  40.7220000  37.2670000
  37.0180000  26.2100000  50.8020000  36.1910000  26.6050000  51.8890000
  37.6130000  24.5200000  51.0780000  35.9950000  25.9490000  49.3290000
  38.2610000  24.5010000  51.9550000  36.7630000  23.8580000  51.2420000
  38.1720000  24.1850000  50.2050000  35.5490000  26.8950000  49.0230000
  36.6140000  25.5610000  48.5210000  35.2050000  25.2330000  49.5570000
  45.6130000  20.3650000  31.1670000  46.6600000  20.0940000  32.0890000
  44.4030000  21.4750000  31.9360000  46.2340000  21.4400000  29.8460000
  43.9240000  20.9680000  32.7730000  44.9090000  22.3710000  32.2950000
  43.6490000  21.7560000  31.2010000  46.9930000  20.9100000  29.2720000
  45.4110000  21.7210000  29.1890000  46.6720000  22.3380000  30.2830000
  23.8270000  49.9050000  18.8670000  23.4950000  48.9170000  19.8340000
  22.3110000  50.5070000  18.0750000  24.3670000  51.4170000  19.7090000
  21.8480000  49.6970000  17.5120000  21.6180000  50.8600000  18.8390000
  22.5560000  51.3270000  17.4000000  25.2920000  51.2220000  20.2500000
  24.5340000  52.2020000  18.9720000  23.5970000  51.7370000  20.4110000
  36.0570000  29.6840000  27.8470000  37.4560000  29.8570000  27.6610000
  35.7660000  28.5920000  29.2650000  35.3350000  31.2220000  28.4770000
  36.1530000  27.5980000  29.0450000  36.2760000  28.9940000  30.1420000
  34.6970000  28.5320000  29.4630000  35.4310000  32.0040000  27.7250000
  34.2820000  31.0630000  28.7050000  35.8600000  31.5250000  29.3840000
  35.5650000  27.3230000  40.8980000  36.4070000  27.4440000  42.0370000
  33.8720000  27.7890000  41.3470000  35.9540000  28.6410000  39.7160000
  33.4790000  27.0770000  42.0730000  33.8740000  28.7880000  41.7830000
  33.2450000  27.7830000  40.4560000  36.9670000  28.5060000  39.3400000
  35.2500000  28.6030000  38.8850000  35.8770000  29.6080000  40.2120000
  50.3130000  24.5640000  50.2210000  49.4180000  24.4510000  49.1220000
  49.7500000  25.8880000  51.3240000  50.1120000  23.1330000  51.3140000
  49.8090000  26.8450000  50.8050000  48.7180000  25.6990000  51.6210000
  50.3830000  25.9150000  52.2110000  50.4140000  22.2280000  50.7890000
  50.7310000  23.2630000  52.2010000  49.0660000  23.0470000  51.6120000
  32.1860000  32.3400000  39.1950000  31.5710000  32.0390000  40.4410000
  33.6920000  31.3470000  39.0090000  31.1860000  31.6550000  37.8460000
  34.4170000  31.6410000  39.7660000  33.4480000  30.2910000  39.1310000
  34.1140000  31.5100000  38.0180000  30.2200000  32.1560000  37.8190000
  31.7020000  31.8060000  36.8990000  31.0360000  30.5880000  38.0110000
  40.7410000  46.8110000  29.8310000  41.8650000  45.9790000  29.5760000
  39.4360000  46.4510000  28.6250000  39.9220000  46.2720000  31.3560000
  39.7760000  46.7250000  27.6270000  39.2040000  45.3860000  28.6500000
  38.5430000  47.0220000  28.8750000  40.5910000  46.4240000  32.2020000
  39.0110000  46.8500000  31.5030000  39.6710000  45.2130000  31.2780000
  30.3170000  32.7710000  48.1880000  31.4850000  33.3240000  48.7800000
  30.6920000  32.2330000  46.4990000  29.9480000  31.1710000  48.9570000
  30.9420000  33.0990000  45.8870000  31.5380000  31.5450000  46.5160000
  29.8240000  31.7280000  46.0770000  29.6970000  31.3200000  50.0060000
  29.1080000  30.7060000  48.4430000  30.8220000  30.5230000  48.8820000
  21.3320000  35.8500000  38.0040000  20.7370000  37.1200000  37.7740000
  22.8760000  35.7260000  37.0620000  21.9860000  35.7850000  39.6940000
  22.6550000  35.7520000  35.9950000  23.5260000  36.5640000  37.3180000
  23.3780000  34.7910000  37.3080000  21.1640000  35.8510000  40.4050000
  22.5200000  34.8470000  39.8410000  22.6690000  36.6200000  39.8510000
  37.3410000  31.3560000  45.3350000  38.1830000  32.4890000  45.5040000
  37.6010000  30.6510000  43.6850000  37.9490000  29.9930000  46.3630000
  37.2770000  31.3650000  42.9290000  38.6600000  30.4310000  43.5470000
  37.0240000  29.7320000  43.5890000  37.8620000  30.2620000  47.4140000
  37.3600000  29.0980000  46.1660000  38.9950000  29.7970000  46.1240000
  31.4360000  41.9740000  38.2240000  31.4560000  43.2070000  37.5170000
  33.1260000  41.3340000  38.3730000  31.0600000  42.2850000  39.9700000
  33.5110000  41.0920000  37.3830000  33.7610000  42.0910000  38.8340000
  33.1210000  40.4370000  38.9910000  30.0510000  42.6850000  40.0600000
  31.1320000  41.3530000  40.5290000  31.7720000  43.0050000  40.3730000
  39.7730000  39.2180000  40.7940000  40.8480000  38.5430000  40.1550000
  38.5310000  39.6830000  39.5580000  38.8150000  38.0340000  41.7770000
  38.9580000  40.4100000  38.8680000  38.2210000  38.7960000  39.0040000
  37.6670000  40.1180000  40.0570000  39.4330000  37.6470000  42.5850000
  37.9400000  38.5310000  42.1930000  38.4930000  37.2090000  41.1400000
  42.8850000  27.6600000  47.3370000  44.2140000  27.1740000  47.2020000
  42.3980000  28.5180000  45.8160000  41.7260000  26.2670000  47.3000000
  43.0170000  29.4060000  45.6850000  42.5340000  27.8520000  44.9640000
  41.3510000  28.8110000  45.8840000  41.8900000  25.6330000  48.1700000
  40.7040000  26.6440000  47.3120000  41.8860000  25.6850000  46.3920000
  41.8460000  24.6470000  24.6350000  40.9950000  23.9520000  23.7330000
  42.8540000  23.4540000  25.5560000  43.1430000  25.5050000  23.7030000
  42.2080000  22.8410000  26.1840000  43.3910000  22.8150000  24.8550000
  43.5680000  23.9890000  26.1810000  42.6940000  26.2760000  23.0790000
  43.8470000  25.9630000  24.3970000  43.6700000  24.7890000  23.0720000
  35.8430000  50.9010000  31.0540000  35.8520000  50.9310000  32.4750000
  36.0900000  49.1990000  30.4820000  34.1580000  51.1960000  30.4540000
  37.0840000  48.8590000  30.7710000  35.3400000  48.5510000  30.9360000
  35.9930000  49.1620000  29.3980000  33.8460000  52.2040000  30.7230000
  34.1330000  51.0840000  29.3700000  33.4790000  50.4730000  30.9080000
  28.5300000  41.0190000  48.8770000  28.3850000  39.7090000  48.3440000
  28.4660000  42.2300000  47.5300000  27.0280000  41.4730000  49.7840000
  29.3240000  42.0900000  46.8730000  27.5460000  42.0910000  46.9610000
  28.4860000  43.2370000  47.9460000  26.9140000  40.8210000  50.6490000
  27.1020000  42.5080000  50.1160000  26.1620000  41.3630000  49.1310000
  39.8170000  43.3460000  21.6310000  39.2280000  42.2380000  20.9630000
  41.6180000  43.1450000  21.6620000  39.6800000  44.8220000  20.5890000
  41.8780000  42.2750000  22.2650000  41.9850000  43.0050000  20.6450000
  42.0750000  44.0350000  22.0930000  38.6300000  45.0850000  20.4660000
  40.2090000  45.6500000  21.0600000  40.1200000  44.6200000  19.6120000
  40.3630000  42.4630000  40.1010000  40.8730000  41.2630000  39.5360000
  41.7410000  43.5580000  40.5370000  39.5710000  43.4520000  38.8040000
  42.3350000  43.0990000  41.3260000  42.3670000  43.7210000  39.6590000
  41.3490000  44.5130000  40.8850000  38.7000000  42.9210000  38.4230000
  39.2600000  44.4110000  39.2170000  40.2780000  43.6200000  37.9920000
  44.8650000  49.9330000  21.7190000  43.9870000  49.3250000  20.7820000
  46.3770000  48.9430000  21.8630000  45.5490000  51.4540000  21.0080000
  46.1350000  47.9680000  22.2860000  46.8180000  48.8090000  20.8750000
  47.0870000  49.4550000  22.5110000  44.7480000  52.1760000  20.8530000
  46.2900000  51.8730000  21.6880000  46.0220000  51.2270000  20.0520000
  33.8880000  20.0870000  48.4710000  33.7800000  18.6740000  48.3570000
  32.2960000  20.8490000  48.0550000  34.0100000  20.5430000  50.2210000
  32.0660000  20.6630000  47.0060000  31.5130000  20.4200000  48.6800000
  32.3520000  21.9230000  48.2300000  34.9360000  20.1490000  50.6370000
  34.0010000  21.6280000  50.3150000  33.1620000  20.1260000  50.7660000
  20.8520000  33.5100000  18.6060000  22.0140000  33.6850000  17.8060000
  20.6360000  31.7500000  18.9810000  21.1640000  34.1530000  20.2730000
  20.4350000  31.2040000  18.0590000  21.5450000  31.3620000  19.4410000
  19.7990000  31.6250000  19.6670000  21.3210000  35.2290000  20.2240000
  20.3070000  33.9380000  20.9110000  22.0520000  33.6750000  20.6860000
  20.8680000  45.5020000  42.4860000  21.8650000  45.2250000  43.4600000
  21.6600000  46.0450000  40.9480000  20.1210000  43.9480000  41.9270000
  22.1690000  46.9940000  41.1160000  22.3840000  45.2960000  40.6290000
  20.9030000  46.1710000  40.1750000  19.5920000  43.4790000  42.7550000
  19.4220000  44.1520000  41.1170000  20.9030000  43.2770000  41.5700000
  37.9770000  44.1930000  24.2450000  39.3850000  44.0320000  24.1290000
  37.1480000  43.1900000  22.9820000  37.3950000  43.3580000  25.7450000
  37.4010000  43.5700000  21.9920000  37.4770000  42.1540000  23.0680000
  36.0700000  43.2420000  23.1280000  37.8140000  43.8500000  26.6220000
  36.3070000  43.4030000  25.7870000  37.7130000  42.3150000  25.7270000
  40.6910000  50.3270000  21.2620000  40.2570000  51.6340000  20.9100000
  41.3580000  49.4960000  19.7950000  42.1920000  50.4400000  22.2720000
  40.5610000  49.3480000  19.0670000  42.1420000  50.1120000  19.3540000
  41.7730000  48.5300000  20.0820000  41.9600000  50.9300000  23.2160000
  42.5760000  49.4390000  22.4660000  42.9460000  51.0200000  21.7390000
  22.3750000  47.8310000  21.3850000  22.6860000  46.4730000  21.1030000
  21.0690000  48.3980000  20.2610000  21.4980000  47.9350000  22.9680000
  21.4430000  48.3950000  19.2380000  20.2110000  47.7300000  20.3360000
  20.7680000  49.4080000  20.5360000  22.1600000  47.6180000  23.7720000
  21.1800000  48.9620000  23.1410000  20.6230000  47.2850000  22.9420000
  48.1670000  25.8230000  23.4650000  49.5490000  25.5500000  23.6530000
  47.6740000  27.2040000  24.5310000  47.9160000  26.5750000  21.8350000
  47.7690000  26.9100000  25.5760000  48.3180000  28.0620000  24.3350000
  46.6390000  27.4730000  24.3220000  48.1760000  25.8570000  21.0590000
  46.8720000  26.8670000  21.7270000  48.5510000  27.4570000  21.7400000
  35.3640000  23.0900000  42.3830000  34.3930000  22.7150000  43.3510000
  34.5290000  23.7000000  40.8940000  36.1980000  24.6070000  42.9220000
  33.9650000  22.8890000  40.4350000  33.8480000  24.5080000  41.1640000
  35.2710000  24.0720000  40.1880000  36.7610000  24.4090000  43.8330000
  36.8780000  24.9450000  42.1410000  35.4560000  25.3810000  43.1160000
  33.6310000  33.1960000  51.2680000  33.6350000  34.1870000  52.2880000
  31.9690000  32.4860000  51.1230000  33.7770000  33.9960000  49.6480000
  31.7190000  31.9550000  52.0410000  31.2460000  33.2850000  50.9570000
  31.9430000  31.7930000  50.2830000  34.7460000  34.4850000  49.5700000
  33.6830000  33.2460000  48.8630000  32.9860000  34.7380000  49.5360000
  44.8880000  23.0180000  22.6010000  44.8090000  21.6040000  22.7150000
  46.1440000  23.6470000  23.7470000  45.6550000  23.4560000  21.0180000
  45.8290000  23.4580000  24.7730000  47.0920000  23.1420000  23.5600000
  46.2690000  24.7190000  23.5960000  45.0100000  23.1370000  20.2010000
  45.7980000  24.5350000  20.9700000  46.6210000  22.9590000  20.9330000
  49.4020000  45.5170000  20.1850000  50.8030000  45.6040000  19.9610000
  48.8880000  46.8390000  21.3150000  48.5180000  46.0210000  18.6850000
  49.3460000  46.6820000  22.2910000  49.2070000  47.8020000  20.9150000
  47.8030000  46.8290000  21.4150000  48.7260000  45.3120000  17.8840000
  47.4470000  46.0420000  18.8830000  48.8500000  47.0150000  18.3840000
  20.1260000  43.8220000  33.6360000  19.4650000  42.5650000  33.6790000
  21.5880000  43.7000000  32.5700000  19.1320000  44.9950000  32.6760000
  22.3060000  43.0120000  33.0150000  21.2910000  43.3290000  31.5880000
  22.0430000  44.6840000  32.4640000  18.1910000  45.1830000  33.1920000
  19.6790000  45.9310000  32.5660000  18.9270000  44.5770000  31.6900000
  43.9770000  33.1550000  48.8450000  44.5550000  33.3560000  47.5620000
  43.2080000  34.6970000  49.4100000  42.5080000  32.1050000  48.6900000
  43.9760000  35.4550000  49.5550000  42.4950000  35.0420000  48.6600000
  42.6880000  34.5200000  50.3510000  42.8030000  31.1140000  48.3480000
  42.0140000  32.0250000  49.6580000  41.8200000  32.5470000  47.9680000
  34.3850000  22.1960000  21.0300000  34.6910000  21.2240000  20.0390000
  35.6850000  23.4590000  21.0600000  32.9800000  23.2000000  20.4800000
  36.6240000  23.0080000  21.3800000  35.8060000  23.8790000  20.0620000
  35.4060000  24.2500000  21.7550000  32.0920000  22.5740000  20.4060000
  32.8020000  24.0010000  21.1960000  33.2020000  23.6300000  19.5030000
  42.6680000  32.8610000  40.4470000  42.4580000  31.6720000  39.6960000
  43.2050000  32.4300000  42.1240000  44.1560000  33.7020000  39.8430000
  42.4030000  31.9030000  42.6390000  44.0850000  31.7890000  42.0690000
  43.4530000  33.3400000  42.6700000  43.9970000  34.0330000  38.8180000
  44.3680000  34.5640000  40.4750000  45.0010000  33.0130000  39.8750000
  46.1840000  39.9450000  30.2240000  47.5780000  40.2070000  30.3130000
  45.8510000  38.9390000  28.7530000  45.7050000  38.7750000  31.5230000
  46.0940000  39.5110000  27.8580000  46.4620000  38.0370000  28.7840000
  44.7970000  38.6620000  28.7330000  45.8490000  39.2360000  32.4990000
  44.6570000  38.5050000  31.4000000  46.3210000  37.8790000  31.4510000
  37.3580000  19.4620000  27.4620000  36.9980000  20.3940000  28.4730000
  38.3660000  20.2930000  26.2050000  38.5750000  18.2920000  28.1230000
  37.7670000  21.0490000  25.6990000  39.2220000  20.7680000  26.6830000
  38.7170000  19.5600000  25.4790000  38.1180000  17.6980000  28.9130000
  38.9180000  17.6350000  27.3250000  39.4240000  18.8430000  28.5290000
  24.2130000  45.6430000  29.6980000  23.7800000  46.7990000  28.9940000
  24.4430000  46.0530000  31.4490000  22.8410000  44.4640000  29.8260000
  25.2550000  46.7720000  31.5510000  23.5230000  46.4850000  31.8450000
  24.6860000  45.1480000  32.0050000  22.5700000  44.1110000  28.8320000
  23.1440000  43.6190000  30.4430000  21.9810000  44.9560000  30.2830000
  49.6770000  47.8110000  33.1770000  49.7900000  48.7860000  32.1490000
  50.4200000  46.2540000  32.6180000  50.8040000  48.2300000  34.5340000
  49.8460000  45.8580000  31.7800000  51.4470000  46.4350000  32.3000000
  50.4140000  45.5350000  33.4360000  50.4910000  49.1670000  34.9910000
  50.7840000  47.4370000  35.2800000  51.8170000  48.3370000  34.1450000
  32.7370000  34.0180000  27.7750000  33.2230000  33.2780000  26.6630000
  31.5440000  33.0100000  28.6950000  34.0470000  34.1720000  29.0180000
  30.6700000  32.8200000  28.0720000  32.0060000  32.0620000  28.9710000
  31.2390000  33.5410000  29.5970000  34.8650000  34.7660000  28.6130000
  33.6490000  34.6590000  29.9070000  34.4160000  33.1810000  29.2820000
  23.5340000  42.2120000  39.6570000  22.9020000  42.8030000  40.7850000
  24.4540000  43.4800000  38.7460000  24.9040000  41.1630000  40.2130000
  23.7580000  44.2110000  38.3350000  25.1490000  43.9800000  39.4220000
  25.0110000  43.0120000  37.9350000  24.5120000  40.3290000  40.7930000
  25.4440000  40.7820000  39.3470000  25.5820000  41.7500000  40.8330000
  26.5730000  49.2710000  41.5220000  27.6570000  48.6800000  40.8180000
  25.4800000  47.9690000  42.1530000  27.1740000  49.9660000  43.0850000
  25.0260000  47.4390000  41.3170000  26.0600000  47.2690000  42.7550000
  24.7000000  48.4160000  42.7680000  27.8630000  50.7830000  42.8790000
  26.3300000  50.3380000  43.6660000  27.6900000  49.1910000  43.6530000
  34.0990000  46.7110000  28.7490000  33.6070000  48.0430000  28.8040000
  33.4090000  45.7540000  30.1260000  33.3400000  45.8440000  27.3490000
  33.7760000  46.1570000  31.0690000  32.3210000  45.8180000  30.1030000
  33.7130000  44.7120000  30.0320000  33.6600000  46.3070000  26.4170000
  33.6470000  44.7980000  27.3590000  32.2540000  45.9030000  27.4300000
  37.6100000  45.2570000  49.7080000  37.8880000  46.6270000  49.9630000
  38.5440000  44.7110000  48.2540000  38.3870000  44.2340000  50.9870000
  38.1910000  45.2450000  47.3720000  39.6040000  44.9190000  48.4040000
  38.4020000  43.6400000  48.1120000  37.9290000  44.4460000  51.9520000
  38.2510000  43.1810000  50.7430000  39.4530000  44.4600000  51.0350000
  28.0140000  20.5340000  22.8080000  26.7660000  20.0010000  23.2300000
  28.2490000  22.1770000  23.5390000  29.3620000  19.6310000  23.6180000
  27.4960000  22.8600000  23.1470000  28.1480000  22.1090000  24.6230000
  29.2430000  22.5460000  23.2900000  29.3610000  18.5960000  23.2800000
  30.3140000  20.0970000  23.3660000  29.2200000  19.6600000  24.6990000
  48.8660000  35.1100000  50.5540000  49.4350000  34.0420000  49.8090000
  50.0400000  36.4890000  50.6270000  47.5360000  35.8770000  49.5910000
  50.9240000  36.1860000  51.1880000  50.3330000  36.7710000  49.6150000
  49.5710000  37.3400000  51.1190000  46.7280000  35.1610000  49.4510000
  47.1600000  36.7510000  50.1220000  47.9210000  36.1830000  48.6180000
  45.5990000  50.5430000  48.6030000  44.8190000  49.5150000  49.1980000
  46.5420000  51.4080000  49.8880000  46.9580000  49.8020000  47.6590000
  45.8550000  51.9210000  50.5600000  47.1310000  50.6860000  50.4540000
  47.2070000  52.1350000  49.4230000  46.5520000  49.2290000  46.8260000
  47.6070000  50.5890000  47.2770000  47.5320000  49.1400000  48.3070000
  19.2440000  45.3790000  37.1150000  18.4590000  46.0380000  38.1000000
  18.2020000  44.2210000  36.1870000  19.6690000  46.5490000  35.7980000
  17.8530000  43.4320000  36.8520000  17.3450000  44.7550000  35.7760000
  18.7810000  43.7830000  35.3740000  20.3100000  47.3330000  36.2000000
  20.1930000  46.0240000  35.0000000  18.7570000  46.9950000  35.4000000
  47.4320000  32.0470000  37.3540000  47.0880000  31.2930000  38.5090000
  46.2650000  31.6730000  36.0180000  47.0440000  33.7950000  37.6350000
  46.3720000  30.6290000  35.7230000  45.2470000  31.8490000  36.3660000
  46.4730000  32.3160000  35.1640000  47.6750000  34.1850000  38.4320000
  47.2230000  34.3580000  36.7200000  45.9960000  33.8930000  37.9210000
  38.6260000  26.5700000  28.6230000  37.5760000  26.6400000  27.6680000
  39.7710000  25.2400000  28.1660000  39.7160000  28.0060000  28.4310000
  39.2590000  24.2810000  28.2300000  40.1210000  25.3970000  27.1460000
  40.6230000  25.2450000  28.8460000  39.1660000  28.9150000  28.6730000
  40.5690000  27.9070000  29.1010000  40.0680000  28.0590000  27.4010000
  28.4250000  50.5890000  49.6210000  29.2930000  51.7140000  49.6530000
  29.3510000  49.0980000  50.0760000  27.2670000  50.6800000  51.0130000
  30.1100000  48.8960000  49.3210000  29.8320000  49.2500000  51.0430000
  28.6670000  48.2520000  50.1400000  26.6190000  51.5470000  50.8920000
  26.6620000  49.7740000  51.0420000  27.8250000  50.7720000  51.9450000
  43.1860000  32.2120000  22.8620000  42.7010000  33.4870000  22.4630000
  43.0510000  32.0510000  24.6630000  42.0140000  30.9300000  22.3410000
  43.7110000  32.7730000  25.1430000  42.0220000  32.2410000  24.9680000
  43.3370000  31.0430000  24.9590000  41.9730000  30.8950000  21.2530000
  42.3390000  29.9630000  22.7240000  41.0240000  31.1610000  22.7340000
  35.8990000  44.8500000  44.6210000  36.9540000  44.7520000  45.5680000
  35.0370000  46.4300000  44.8370000  36.5950000  45.0920000  42.9650000
  34.5510000  46.4490000  45.8130000  35.7560000  47.2470000  44.7750000
  34.2880000  46.5450000  44.0550000  37.1610000  44.2080000  42.6750000
  35.7870000  45.2570000  42.2520000  37.2550000  45.9600000  42.9710000
  33.8550000  24.7700000  46.6650000  35.2590000  24.6930000  46.8770000
  33.0470000  25.3540000  48.1790000  33.4880000  26.1550000  45.5550000
  33.1780000  24.6160000  48.9700000  33.4940000  26.2990000  48.4880000
  31.9840000  25.5000000  47.9900000  33.9170000  25.9590000  44.5730000
  32.4080000  26.2720000  45.4640000  33.9170000  27.0710000  45.9620000
  31.2810000  43.9040000  33.8230000  30.2570000  43.3810000  32.9870000
  32.8550000  43.9040000  32.9230000  31.0360000  45.6880000  34.0350000
  33.1530000  42.8780000  32.7110000  32.7370000  44.4490000  31.9860000
  33.6200000  44.3880000  33.5300000  30.1060000  45.8670000  34.5720000
  31.8690000  46.1050000  34.6000000  30.9880000  46.1670000  33.0560000
  29.5690000  25.8050000  42.7160000  28.7330000  26.2210000  41.6450000
  31.2540000  26.4130000  42.4380000  29.1400000  26.7330000  44.2130000
  31.6700000  25.9410000  41.5490000  31.2310000  27.4940000  42.2970000
  31.8740000  26.1730000  43.3010000  28.1270000  26.4780000  44.5220000
  29.8390000  26.4810000  45.0100000  29.1970000  27.8020000  44.0060000
  38.4270000  20.3020000  20.6410000  37.0510000  20.0690000  20.3710000
  38.9690000  21.7940000  19.7640000  38.6220000  20.8540000  22.3560000
  38.9110000  21.6260000  18.6890000  38.3240000  22.6290000  20.0360000
  39.9980000  22.0240000  20.0420000  38.3280000  20.0520000  23.0320000
  39.6630000  21.1190000  22.5370000  37.9900000  21.7250000  22.5320000
  20.4740000  30.6510000  44.0070000  19.9300000  29.7490000  44.9610000
  20.5700000  32.3110000  44.7300000  22.2390000  30.3020000  43.7820000
  19.5640000  32.6780000  44.9320000  21.1340000  32.2690000  45.6610000
  21.0690000  32.9830000  44.0330000  22.3610000  29.3120000  43.3450000
  22.6760000  31.0490000  43.1200000  22.7420000  30.3360000  44.7490000
  49.4890000  35.7210000  42.4310000  48.1790000  35.1690000  42.3990000
  49.5100000  37.2810000  41.5070000  49.8460000  36.3340000  44.0990000
  49.3060000  37.0840000  40.4550000  48.7460000  37.9480000  41.9060000
  50.4880000  37.7480000  41.6070000  49.8680000  35.4990000  44.7970000
  50.8120000  36.8380000  44.1020000  49.0700000  37.0380000  44.4010000
  30.6090000  40.6690000  30.6470000  29.2480000  40.5010000  31.0180000
  30.8720000  42.3660000  30.0660000  31.6450000  40.6790000  32.1350000
  30.3020000  42.5310000  29.1520000  30.5400000  43.0670000  30.8320000
  31.9320000  42.5220000  29.8670000  31.5960000  39.7040000  32.6180000
  32.6760000  40.8970000  31.8580000  31.2840000  41.4430000  32.8230000
  38.3020000  32.0030000  19.1270000  37.4350000  32.2040000  18.0190000
  39.9860000  31.6960000  18.5290000  38.5540000  33.5770000  19.9910000
  40.0090000  30.7600000  17.9720000  40.2940000  32.5140000  17.8780000
  40.6660000  31.6320000  19.3780000  37.6110000  33.9120000  20.4200000
  39.2880000  33.4430000  20.7840000  38.9170000  34.3250000  19.2850000
  29.1050000  48.2960000  19.7720000  29.4020000  46.9250000  19.9990000
  30.3640000  49.3280000  20.5700000  29.4170000  48.7020000  18.0330000
  30.3100000  49.1980000  21.6500000  31.3520000  49.0330000  20.2170000
  30.1870000  50.3740000  20.3200000  28.7260000  48.1480000  17.4000000
  29.2760000  49.7710000  17.8780000  30.4410000  48.4310000  17.7750000
  43.1550000  32.8040000  32.1710000  43.4500000  31.4930000  31.7090000
  44.1460000  33.1620000  33.6460000  43.8480000  34.0210000  31.0200000
  43.8470000  32.4970000  34.4560000  45.2010000  33.0070000  33.4210000
  43.9880000  34.1970000  33.9480000  43.3490000  33.9370000  30.0560000
  43.7010000  35.0240000  31.4200000  44.9150000  33.8350000  30.8930000
  36.6900000  47.2920000  38.5630000  36.4230000  46.1750000  37.7240000
  35.2420000  47.6270000  39.6010000  37.8910000  46.8190000  39.8350000
  34.4060000  47.9320000  38.9730000  34.9730000  46.7250000  40.1500000
  35.4780000  48.4240000  40.3060000  38.8430000  46.5770000  39.3660000
  38.0280000  47.6460000  40.5310000  37.5220000  45.9470000  40.3770000
  23.4050000  39.4070000  36.5010000  24.2530000  38.3090000  36.1930000
  21.7990000  39.1760000  35.6920000  22.9010000  39.3130000  38.2400000
  21.9280000  39.2070000  34.6110000  21.3830000  38.2100000  35.9810000
  21.1200000  39.9700000  36.0010000  23.7740000  39.4350000  38.8790000
  22.1810000  40.1020000  38.4530000  22.4430000  38.3420000  38.4330000
  44.0840000  19.5840000  22.2290000  44.3820000  20.2650000  21.0170000
  43.3820000  17.9560000  21.8510000  45.6290000  19.0840000  23.0360000
  42.4240000  18.0810000  21.3480000  44.0650000  17.4090000  21.2000000
  43.2390000  17.3990000  22.7760000  46.1880000  19.9700000  23.3330000
  45.4010000  18.4850000  23.9170000  46.2270000  18.4940000  22.3410000
  38.4360000  34.2720000  49.1380000  38.8660000  34.8920000  47.9340000
  39.7540000  33.2000000  49.7710000  38.3690000  35.5070000  50.4630000
  39.9250000  32.3820000  49.0710000  40.6710000  33.7790000  49.8820000
  39.4600000  32.7960000  50.7390000  37.6050000  36.2480000  50.2310000
  38.1260000  35.0170000  51.4050000  39.3370000  36.0000000  50.5500000
  31.1950000  28.2100000  44.8960000  32.4390000  28.1270000  44.2140000
  31.4900000  28.5400000  46.6540000  30.3470000  29.7410000  44.4240000
  32.0070000  27.6920000  47.1020000  32.1030000  29.4350000  46.7570000
  30.5370000  28.6930000  47.1590000  30.0940000  29.7050000  43.3650000
  29.4370000  29.8490000  45.0120000  31.0030000  30.5920000  44.6110000
  22.6230000  49.0250000  42.3960000  21.2150000  49.0200000  42.2030000
  23.4250000  49.8070000  40.9700000  23.0520000  50.2150000  43.6940000
  23.2580000  49.2010000  40.0800000  23.0030000  50.8010000  40.8160000
  24.4950000  49.8930000  41.1570000  22.6320000  49.8860000  44.6430000
  24.1350000  50.2850000  43.7790000  22.6440000  51.1940000  43.4380000
  23.1710000  43.9200000  19.9620000  23.8490000  42.6870000  19.7620000
  21.9700000  44.1720000  18.6280000  22.0470000  43.7700000  21.3760000
  22.4960000  44.2830000  17.6800000  21.3020000  43.3110000  18.5730000
  21.3870000  45.0700000  18.8280000  22.6250000  43.6080000  22.2850000
  21.4620000  44.6830000  21.4740000  21.3760000  42.9250000  21.2190000
  26.1050000  26.5660000  35.1530000  26.3860000  27.8900000  34.7190000
  27.2300000  25.4080000  34.3290000  26.6460000  26.3660000  36.8720000
  27.0310000  25.4080000  33.2580000  28.2610000  25.7150000  34.5070000
  27.0750000  24.4060000  34.7280000  26.0540000  27.0130000  37.5180000
  26.5130000  25.3280000  37.1760000  27.6990000  26.6360000  36.9550000
  21.6610000  51.3200000  28.5480000  23.0290000  51.5640000  28.2520000
  20.9810000  50.1500000  27.3420000  21.5370000  50.3250000  30.0590000
  20.9840000  50.6060000  26.3520000  21.5910000  49.2470000  27.3280000
  19.9590000  49.8940000  27.6210000  21.9170000  50.8980000  30.9040000
  20.4950000  50.0620000  30.2360000  22.1260000  49.4150000  29.9430000
  37.7420000  42.6650000  40.3740000  38.5970000  43.4510000  41.1930000
  36.6120000  41.7100000  41.4210000  36.5560000  43.7440000  39.5280000
  37.1820000  40.9940000  42.0130000  36.0760000  42.3860000  42.0880000
  35.8980000  41.1770000  40.7940000  37.0870000  44.4020000  38.8420000
  35.8440000  43.1350000  38.9720000  36.0210000  44.3440000  40.2650000
  37.3920000  51.4220000  19.7460000  38.6540000  52.0030000  19.4470000
  37.3520000  49.7160000  19.1330000  37.2720000  51.1210000  21.5290000
  37.4180000  49.7190000  18.0450000  38.1960000  49.1620000  19.5460000
  36.4210000  49.2420000  19.4400000  37.2840000  52.0710000  22.0610000
  36.3440000  50.5940000  21.7470000  38.1180000  50.5140000  21.8530000
  17.4220000  48.5270000  29.8850000  17.5970000  49.9290000  30.0360000
  18.6050000  47.8980000  28.6640000  18.0190000  47.6790000  31.3720000
  18.3800000  48.3230000  27.6860000  19.6160000  48.1810000  28.9590000
  18.5330000  46.8120000  28.6140000  17.4000000  47.9570000  32.2230000
  17.9690000  46.6020000  31.2210000  19.0520000  47.9700000  31.5650000
  40.1510000  23.0040000  41.7520000  38.7960000  22.6580000  42.0090000
  41.2100000  21.5640000  42.0550000  40.3950000  23.2080000  39.9680000
  41.1760000  21.3020000  43.1120000  40.8560000  20.7220000  41.4610000
  42.2350000  21.8020000  41.7720000  39.8090000  24.0550000  39.6140000
  41.4500000  23.3840000  39.7630000  40.0720000  22.3030000  39.4510000
  31.8910000  21.9510000  43.3240000  31.7850000  21.9620000  44.7420000
  30.3390000  21.3480000  42.6070000  31.8860000  23.6550000  42.7050000
  30.1860000  20.3080000  42.8930000  29.5090000  21.9510000  42.9780000
  30.3860000  21.4250000  41.5220000  32.7770000  24.1730000  43.0560000
  31.8760000  23.6450000  41.6150000  30.9980000  24.1720000  43.0710000
  31.0770000  46.6230000  40.5750000  31.8210000  47.2760000  39.5550000
  30.0640000  45.3120000  39.8390000  32.1950000  45.6260000  41.5950000
  29.3200000  45.7540000  39.1770000  30.7030000  44.6380000  39.2670000
  29.5630000  44.7530000  40.6290000  32.8900000  46.2800000  42.1200000
  31.6140000  45.0560000  42.3190000  32.7530000  44.9400000  40.9580000
  30.5640000  20.9600000  35.2190000  29.6480000  22.0180000  34.9680000
  29.7550000  19.3700000  34.8940000  31.8330000  20.9410000  33.9250000
  28.9430000  19.2230000  35.6060000  29.3540000  19.3680000  33.8810000
  30.4820000  18.5660000  34.9990000  32.4250000  21.8530000  33.9810000
  32.4820000  20.0770000  34.0660000  31.3540000  20.8780000  32.9470000
  24.3050000  21.5440000  36.4030000  24.6510000  21.3890000  35.0330000
  25.7350000  21.1310000  37.4380000  24.1330000  23.3070000  36.7880000
  25.9770000  20.0750000  37.3200000  26.5890000  21.7360000  37.1340000
  25.4990000  21.3360000  38.4820000  23.2940000  23.7210000  36.2300000
  23.9570000  23.4300000  37.8560000  25.0480000  23.8300000  36.5090000
  37.8570000  36.9420000  17.6830000  39.0950000  36.8000000  18.3690000
  36.6360000  35.8100000  18.4010000  37.1070000  38.5340000  18.1150000
  36.9460000  34.7810000  18.2250000  36.5620000  35.9890000  19.4740000
  35.6650000  35.9830000  17.9370000  37.7350000  39.3440000  17.7470000
  36.1190000  38.6050000  17.6620000  37.0150000  38.6110000  19.1980000
  29.0100000  22.6940000  46.8660000  29.5700000  21.3970000  46.7150000
  30.2640000  23.8200000  47.5340000  28.7560000  23.4370000  45.2320000
  30.5370000  23.5050000  48.5410000  31.1480000  23.7980000  46.8960000
  29.8640000  24.8330000  47.5650000  28.0100000  22.8640000  44.6830000
  28.4120000  24.4640000  45.3490000  29.6960000  23.4310000  44.6800000
  38.3590000  46.9850000  44.5730000  38.5500000  47.7320000  43.3780000
  39.5540000  45.6230000  44.6310000  38.9210000  47.9610000  45.9930000
  39.3510000  44.9250000  43.8200000  40.5630000  46.0200000  44.5230000
  39.4680000  45.1050000  45.5870000  38.2910000  48.8430000  46.1010000
  38.8590000  47.3570000  46.8970000  39.9540000  48.2710000  45.8350000
  23.3850000  21.2430000  19.9130000  22.9190000  19.9000000  19.8750000
  22.0200000  22.3680000  19.5170000  23.7060000  21.7240000  21.6310000
  21.6980000  22.2040000  18.4890000  21.1860000  22.1780000  20.1930000
  22.3540000  23.3990000  19.6340000  24.5220000  21.1240000  22.0310000
  23.9760000  22.7780000  21.6680000  22.8080000  21.5580000  22.2280000
  42.7880000  43.0650000  29.0180000  43.3410000  44.3630000  28.8430000
  42.9430000  42.5720000  30.7550000  40.9830000  43.1530000  28.8730000
  43.9970000  42.4720000  31.0130000  42.4850000  43.3300000  31.3900000
  42.4390000  41.6180000  30.9080000  40.7130000  43.4470000  27.8600000
  40.5520000  42.1780000  29.0960000  40.5970000  43.8900000  29.5790000
  26.1970000  32.9230000  49.9310000  25.9480000  31.5250000  49.8860000
  25.3360000  33.7340000  48.5570000  25.3080000  33.6500000  51.3340000
  25.7600000  33.3970000  47.6110000  24.2770000  33.4780000  48.5900000
  25.4510000  34.8140000  48.6430000  25.7130000  33.2560000  52.2650000
  25.4250000  34.7330000  51.3170000  24.2500000  33.3980000  51.2640000
  25.9620000  46.8980000  19.9710000  27.2650000  46.9550000  20.5350000
  25.8020000  48.1710000  18.6900000  25.8060000  45.4050000  18.9560000
  25.8760000  49.1580000  19.1460000  26.6000000  48.0490000  17.9570000
  24.8360000  48.0700000  18.1960000  25.8830000  44.5230000  19.5910000
  24.8400000  45.4070000  18.4520000  26.6030000  45.3870000  18.2120000
  35.7700000  49.2730000  34.3930000  36.0930000  48.3850000  35.4550000
  34.4210000  48.5710000  33.4070000  34.9430000  50.7410000  35.0630000
  34.7620000  47.6560000  32.9230000  33.5760000  48.3440000  34.0570000
  34.1130000  49.2910000  32.6490000  35.6360000  51.2910000  35.6980000
  34.6150000  51.3790000  34.2430000  34.0780000  50.4330000  35.6510000
  19.7910000  28.7890000  41.5190000  20.6730000  28.4890000  40.4460000
  18.0790000  28.7560000  40.9220000  19.7500000  27.3940000  42.6760000
  17.9320000  29.5550000  40.1960000  17.8790000  27.7940000  40.4490000
  17.3990000  28.8960000  41.7610000  20.7300000  27.2730000  43.1350000
  19.0070000  27.5860000  43.4500000  19.4860000  26.4830000  42.1380000
  25.7810000  49.3510000  47.7760000  26.5890000  48.3720000  48.4170000
  26.8450000  50.5890000  46.9870000  24.9990000  48.6240000  46.3110000
  27.4020000  51.1310000  47.7510000  27.5430000  50.0910000  46.3130000
  26.2300000  51.2870000  46.4200000  24.3100000  47.8380000  46.6180000
  24.4530000  49.3960000  45.7700000  25.7660000  48.2000000  45.6620000
  31.2690000  37.8230000  43.8570000  32.0390000  36.7030000  43.4380000
  29.5050000  37.4150000  43.7580000  31.4450000  38.0420000  45.6480000
  29.2280000  37.2470000  42.7180000  29.3090000  36.5110000  44.3360000
  28.9190000  38.2390000  44.1640000  32.4760000  38.2970000  45.8840000
  30.7860000  38.8420000  45.9820000  31.1750000  37.1150000  46.1550000
  38.1870000  49.8370000  38.9560000  38.9700000  50.9580000  39.3430000
  36.9870000  50.3430000  37.6950000  39.2050000  48.6950000  37.9850000
  36.2810000  51.0520000  38.1280000  37.5110000  50.8160000  36.8640000
  36.4480000  49.4680000  37.3340000  39.9980000  48.2900000  38.6120000
  38.5840000  47.8810000  37.6120000  39.6460000  49.2280000  37.1420000
  44.3480000  24.3120000  44.6780000  43.2950000  23.3640000  44.5660000
  44.7550000  24.5610000  46.4270000  45.8950000  23.5700000  44.0940000
  43.9050000  25.0120000  46.9380000  44.9850000  23.5990000  46.8860000
  45.6200000  25.2180000  46.5080000  45.8160000  23.3510000  43.0300000
  46.7180000  24.2640000  44.2630000  46.0830000  22.6450000  44.6410000
  21.8450000  33.9500000  29.9610000  20.4810000  33.5940000  29.7790000
  22.6270000  34.1910000  28.3430000  21.9470000  35.6370000  30.6160000
  22.6460000  33.2440000  27.8030000  22.0570000  34.9230000  27.7700000
  23.6450000  34.5510000  28.4820000  21.5070000  35.6680000  31.6120000
  22.9910000  35.9430000  30.6700000  21.4040000  36.3160000  29.9580000
  19.1570000  37.6010000  49.4280000  18.3170000  37.3760000  50.5530000
  18.1410000  38.0360000  47.9920000  20.0670000  39.1530000  49.6550000
  17.5150000  37.1870000  47.7180000  17.5070000  38.8880000  48.2400000
  18.7880000  38.2970000  47.1550000  20.7410000  39.0580000  50.5050000
  20.6420000  39.3710000  48.7560000  19.3620000  39.9630000  49.8400000
  29.1270000  52.2470000  38.6300000  30.2700000  51.5140000  38.2120000
  27.6760000  51.6880000  37.6980000  28.6520000  51.7250000  40.3000000
  27.8040000  51.9320000  36.6440000  27.5670000  50.6090000  37.8100000
  26.7850000  52.1850000  38.0810000  29.4390000  51.9930000  41.0030000
  27.7240000  52.2200000  40.5850000  28.5050000  50.6450000  40.3140000
  20.0050000  34.2120000  27.2670000  19.3820000  35.3980000  27.7410000
  18.9220000  32.7930000  27.5820000  20.0080000  34.2130000  25.4540000
  18.8120000  32.6500000  28.6570000  17.9430000  32.9770000  27.1390000
  19.3580000  31.8980000  27.1400000  20.6300000  35.0290000  25.0910000
  20.4030000  33.2650000  25.0910000  18.9880000  34.3430000  25.0900000
  41.0750000  47.5020000  34.2220000  41.5670000  48.6540000  34.8930000
  42.4360000  46.3380000  33.9430000  40.0540000  46.5290000  35.3610000
  43.1600000  46.7810000  33.2600000  42.9230000  46.1140000  34.8930000
  42.0440000  45.4170000  33.5110000  39.1700000  47.1020000  35.6370000
  39.7510000  45.6020000  34.8760000  40.6300000  46.2980000  36.2580000
  31.3930000  41.2090000  27.7810000  30.2070000  40.4490000  27.9730000
  32.7710000  40.4080000  28.6440000  31.9490000  41.0350000  26.0640000
  32.5890000  40.4270000  29.7180000  32.8570000  39.3740000  28.3090000
  33.6960000  40.9390000  28.4220000  31.2120000  41.4780000  25.3960000
  32.9050000  41.5430000  25.9390000  32.0670000  39.9780000  25.8250000
  23.6520000  30.9920000  31.0470000  23.5570000  31.8560000  32.1720000
  23.9420000  29.2940000  31.6120000  22.0150000  30.8000000  30.2930000
  24.9130000  29.2350000  32.1040000  23.1610000  29.0080000  32.3170000
  23.9250000  28.6190000  30.7570000  21.6840000  31.7580000  29.8930000
  22.0700000  30.0690000  29.4870000  21.3060000  30.4570000  31.0460000
  30.7180000  34.8690000  40.4730000  30.1160000  36.0410000  41.0070000
  30.8270000  35.0150000  38.6690000  32.4800000  34.8480000  40.8960000
  29.8240000  35.0420000  38.2450000  31.3560000  35.9330000  38.4100000
  31.3690000  34.1590000  38.2680000  32.5940000  34.7630000  41.9760000
  32.9600000  33.9980000  40.4120000  32.9480000  35.7720000  40.5540000
  33.0670000  38.2620000  38.4710000  33.4700000  36.9360000  38.1560000
  31.7980000  38.8040000  37.2960000  32.0970000  38.2510000  40.0030000
  32.2290000  38.8640000  36.2970000  30.9760000  38.0880000  37.2940000
  31.4250000  39.7840000  37.5900000  32.7290000  37.9380000  40.8320000
  31.7130000  39.2520000  40.1960000  31.2630000  37.5570000  39.8990000
  50.7520000  50.6390000  46.9140000  52.0970000  50.8650000  46.5130000
  50.3140000  48.9060000  46.6080000  50.6450000  50.6790000  48.7230000
  50.3320000  48.7100000  45.5360000  51.0320000  48.2570000  47.1080000
  49.3150000  48.7100000  46.9970000  50.8870000  51.6780000  49.0800000
  49.6340000  50.4160000  49.0330000  51.3500000  49.9620000  49.1440000
  48.2160000  21.7380000  35.2120000  47.9380000  20.3440000  35.2550000
  46.8830000  22.5910000  34.3270000  48.0030000  22.4480000  36.8660000
  46.8720000  22.2680000  33.2860000  45.9270000  22.3520000  34.7920000
  47.0490000  23.6670000  34.3720000  48.7470000  22.0270000  37.5410000
  48.1270000  23.5290000  36.8160000  47.0050000  22.2140000  37.2360000
  39.4750000  29.8200000  40.4870000  38.4950000  29.0580000  41.1800000
  38.6940000  30.6940000  39.1030000  39.9770000  31.2310000  41.5080000
  38.3250000  29.9690000  38.3770000  37.8600000  31.2900000  39.4750000
  39.4240000  31.3470000  38.6280000  40.4760000  30.8700000  42.4070000
  40.6600000  31.8640000  40.9430000  39.0960000  31.8080000  41.7900000
  43.1490000  51.6230000  33.9360000  41.7980000  51.6530000  33.4970000
  43.1990000  51.2910000  35.7180000  43.9550000  50.1240000  33.3120000
  42.7390000  52.1200000  36.2560000  42.6510000  50.3730000  35.9310000
  44.2340000  51.1790000  36.0380000  44.0060000  50.1640000  32.2250000
  44.9620000  50.0550000  33.7220000  43.3800000  49.2490000  33.6160000
  47.0650000  34.2740000  31.0430000  48.4140000  33.8490000  30.9000000
  46.9270000  35.3750000  32.4770000  46.6530000  35.4340000  29.7120000
  47.1500000  34.8180000  33.3860000  47.6340000  36.1980000  32.3720000
  45.9140000  35.7730000  32.5330000  46.6930000  34.9180000  28.7540000
  45.6510000  35.8300000  29.8710000  47.3710000  36.2560000  29.7110000
  26.3900000  37.7070000  38.2460000  25.0270000  37.6560000  38.6450000
  27.4520000  37.3800000  39.6790000  26.7770000  36.2590000  37.2270000
  27.3350000  38.1800000  40.4100000  27.1660000  36.4300000  40.1330000
  28.4910000  37.3300000  39.3570000  26.2050000  36.3020000  36.3020000
  27.8420000  36.2510000  36.9970000  26.5180000  35.3510000  37.7720000
  30.6990000  29.6780000  40.0100000  31.8020000  29.8830000  40.8830000
  30.8830000  28.0820000  39.1700000  29.2070000  29.3520000  40.9870000
  31.7600000  28.1090000  38.5240000  31.0030000  27.2920000  39.9120000
  29.9950000  27.8830000  38.5700000  28.9530000  30.2360000  41.5690000
  28.3820000  29.1060000  40.3190000  29.3900000  28.5150000  41.6610000
  43.2160000  43.4020000  50.0410000  42.5970000  43.8160000  48.8300000
  42.0010000  43.4460000  51.3860000  43.5480000  41.6220000  49.9720000
  41.6880000  44.4750000  51.5600000  41.1340000  42.8450000  51.1120000
  42.4500000  43.0440000  52.2940000  44.2790000  41.4170000  49.1910000
  43.9390000  41.2870000  50.9330000  42.6230000  41.0880000  49.7520000
  36.0430000  27.9850000  25.3450000  37.2130000  28.3790000  26.0500000
  36.3410000  26.4000000  24.5170000  34.7630000  27.4880000  26.5290000
  37.1080000  26.5270000  23.7540000  36.6770000  25.6650000  25.2500000
  35.4190000  26.0530000  24.0530000  34.4640000  28.3490000  27.1240000
  33.8990000  27.1010000  25.9890000  35.1570000  26.7130000  27.1860000
  42.0570000  35.2220000  36.9580000  43.3990000  35.5240000  37.3160000
  41.3100000  34.1780000  38.2390000  41.0370000  36.7110000  37.1270000
  41.8220000  33.2170000  38.2700000  41.4020000  34.6700000  39.2070000
  40.2560000  34.0220000  38.0100000  41.3650000  37.4610000  36.4090000
  39.9940000  36.4600000  36.9400000  41.1390000  37.1080000  38.1380000
  35.0800000  44.2190000  47.8660000  35.9980000  45.2570000  47.5520000
  35.3640000  43.6550000  49.5660000  33.4150000  44.9150000  48.0370000
  36.3500000  43.1980000  49.6380000  35.3080000  44.5060000  50.2450000
  34.6030000  42.9240000  49.8370000  33.0860000  45.3100000  47.0770000
  32.7280000  44.1370000  48.3660000  33.4310000  45.7190000  48.7730000
  18.6550000  29.6500000  33.3820000  19.9710000  30.1820000  33.4560000
  18.5580000  28.4660000  32.0130000  18.3740000  28.5360000  34.7850000
  18.7110000  28.9880000  31.0690000  19.3290000  27.7050000  32.1360000
  17.5770000  27.9910000  32.0120000  18.4020000  29.1050000  35.7130000
  17.4000000  28.0590000  34.6800000  19.1510000  27.7720000  34.8040000
  46.9670000  31.8940000  22.3130000  48.0660000  32.7890000  22.1960000
  45.9910000  32.3250000  23.7790000  45.7580000  32.2490000  21.0110000
  46.5890000  32.1640000  24.6750000  45.6950000  33.3720000  23.7230000
  45.1000000  31.6980000  23.8180000  46.1980000  32.0380000  20.0370000
  44.8760000  31.6250000  21.1540000  45.4700000  33.2990000  21.0580000
  24.8350000  24.0950000  25.3420000  25.9080000  24.3140000  26.2480000
  25.1920000  24.9270000  23.7710000  24.8480000  22.3670000  24.7960000
  25.2220000  26.0040000  23.9280000  26.1580000  24.5890000  23.3930000
  24.4150000  24.6850000  23.0470000  24.6450000  21.7150000  25.6450000
  24.0830000  22.2210000  24.0340000  25.8260000  22.1240000  24.3790000
  27.7610000  30.8960000  19.6500000  28.7730000  31.6040000  20.3520000
  28.5260000  29.8310000  18.3980000  27.0390000  29.6370000  20.7380000
  29.0180000  30.4480000  17.6470000  29.2620000  29.1820000  18.8730000
  27.7580000  29.2210000  17.9220000  26.5280000  30.1230000  21.5680000
  26.3280000  29.0350000  20.1740000  27.8300000  28.9950000  21.1250000
  45.1680000  52.2160000  44.0100000  43.7720000  51.9720000  43.8990000
  45.8790000  51.1060000  45.2540000  46.0080000  51.6060000  42.5240000
  45.4670000  51.3450000  46.2340000  45.6360000  50.0730000  45.0010000
  46.9620000  51.2290000  45.2750000  45.6830000  52.1820000  41.6590000
  47.0860000  51.7100000  42.6470000  45.7610000  50.5540000  42.3730000
  20.5230000  24.8900000  20.9520000  21.8490000  24.7090000  21.4320000
  19.3440000  24.3300000  22.2110000  20.1300000  26.6590000  20.9150000
  19.4520000  23.2560000  22.3590000  19.5420000  24.8470000  23.1500000
  18.3290000  24.5520000  21.8820000  20.7690000  27.1590000  20.1890000
  19.0860000  26.7940000  20.6340000  20.2980000  27.0900000  21.9030000
  45.8660000  20.9290000  51.0710000  46.2170000  21.9360000  52.0110000
  46.2280000  21.5160000  49.3940000  47.0450000  19.5560000  51.1880000
  45.5860000  22.3650000  49.1600000  47.2720000  21.8230000  49.3350000
  46.0450000  20.7120000  48.6810000  46.9560000  19.0820000  52.1640000
  46.8310000  18.8260000  50.4080000  48.0590000  19.9360000  51.0600000
  47.0820000  29.9020000  28.0090000  48.0120000  30.5300000  28.8820000
  45.7540000  31.0680000  27.6030000  47.8330000  29.6950000  26.3730000
  45.1890000  31.3040000  28.5040000  46.1850000  31.9820000  27.1950000
  45.0900000  30.6190000  26.8650000  48.6730000  29.0050000  26.4420000
  47.0920000  29.2980000  25.6800000  48.1860000  30.6610000  26.0100000
  33.6010000  47.6200000  49.8610000  32.9620000  48.7950000  49.3800000
  35.1230000  47.3300000  48.9200000  34.2990000  47.9410000  51.5030000
  34.8730000  47.1170000  47.8810000  35.7530000  48.2190000  48.9670000
  35.6580000  46.4830000  49.3480000  33.4940000  48.1410000  52.2080000
  34.8650000  47.0710000  51.8340000  34.9610000  48.8070000  51.4530000
  19.2030000  22.5650000  38.4500000  18.6910000  23.8900000  38.5040000
  18.4940000  21.5880000  39.8030000  18.4900000  21.7000000  37.0260000
  18.8330000  21.9880000  40.7580000  17.4060000  21.6370000  39.7540000
  18.8150000  20.5510000  39.7080000  18.8250000  22.1760000  36.1050000
  18.8110000  20.6590000  37.0350000  17.4020000  21.7440000  37.0810000
  22.3700000  47.1120000  37.1440000  21.9760000  45.7460000  37.1490000
  23.7520000  47.3460000  38.2940000  23.1940000  47.4980000  35.5760000
  23.4170000  47.1470000  39.3110000  24.5590000  46.6590000  38.0370000
  24.1130000  48.3720000  38.2230000  22.4830000  47.4000000  34.7570000
  23.5760000  48.5170000  35.6070000  24.0220000  46.8050000  35.4210000
  40.1360000  25.7320000  31.9620000  40.1290000  24.7530000  30.9320000
  41.6400000  26.7370000  31.8310000  38.8810000  26.9920000  31.6070000
  42.5120000  26.1120000  32.0210000  41.7080000  27.1580000  30.8280000
  41.6020000  27.5430000  32.5620000  37.8910000  26.5400000  31.6460000
  38.9470000  27.7890000  32.3470000  39.0530000  27.4050000  30.6130000
  34.8320000  51.1050000  50.3440000  34.7790000  52.2400000  49.4910000
  36.2230000  51.2770000  51.4940000  33.4470000  51.1600000  51.5120000
  37.1600000  51.2630000  50.9370000  36.1350000  52.2220000  52.0310000
  36.2100000  50.4520000  52.2060000  32.5080000  51.0680000  50.9680000
  33.5370000  50.3400000  52.2230000  33.4620000  52.1090000  52.0490000
  46.8660000  27.0030000  29.7500000  47.9890000  27.8510000  29.5480000
  46.1910000  27.2810000  31.4100000  45.4780000  27.5880000  28.7410000
  46.9220000  26.9730000  32.1560000  45.9660000  28.3400000  31.5380000
  45.2780000  26.6990000  31.5320000  45.7270000  27.4890000  27.6860000
  44.5920000  26.9950000  28.9640000  45.2790000  28.6360000  28.9690000
  48.6340000  21.7090000  25.6350000  49.4780000  20.5800000  25.4550000
  47.0030000  21.1580000  26.2060000  49.1790000  22.6450000  27.0880000
  46.5270000  20.5640000  25.4270000  47.1190000  20.5530000  27.1050000
  46.3850000  22.0270000  26.4310000  50.1720000  23.0540000  26.9060000
  48.4800000  23.4580000  27.2800000  49.2130000  21.9840000  27.9550000
  34.8000000  34.8000000  34.8000000  90.0000000  90.0000000  90.0000000
