%VERSION  VERSION_STAMP = V0001.000  DATE = 03/12/26  16:17:50                  
%FLAG TITLE                                                                     
%FORMAT(20a4)                                                                   
default_name                                                                    
%FLAG POINTERS                                                                  
%FORMAT(10I8)                                                                   
    3436       8    2052    1048    4104    1062    6168      72       0       0
   13121     341    1048    1062      72       9      12       8       9       0
       0       0       0       0       0       0       0       1      36       0
       0
%FLAG ATOM_NAME                                                                 
%FORMAT(20a4)                                                                   
O1  O2  N1  N2  C1  C2  C3  C4  C5  C6  C7  C8  C9  C10 C11 C12 C13 C14 C15 C16 
C17 C18 C19 C20 H1  H2  H3  H4  H5  H6  H7  H8  H9  H10 H11 H12 S1  O1  C1  C2  
H1  H2  H3  H4  H5  H6  S1  O1  C1  C2  H1  H2  H3  H4  H5  H6  S1  O1  C1  C2  
H1  H2  H3  H4  H5  H6  S1  O1  C1  C2  H1  H2  H3  H4  H5  H6  S1  O1  C1  C2  
H1  H2  H3  H4  H5  H6  S1  O1  C1  C2  H1  H2  H3  H4  H5  H6  S1  O1  C1  C2  
H1  H2  H3  H4  H5  H6  S1  O1  C1  C2  H1  H2  H3  H4  H5  H6  S1  O1  C1  C2  
H1  H2  H3  H4  H5  H6  S1  O1  C1  C2  H1  H2  H3  H4  H5  H6  S1  O1  C1  C2  
H1  H2  H3  H4  H5  H6  S1  O1  C1  C2  H1  H2  H3  H4  H5  H6  S1  O1  C1  C2  
H1  H2  H3  H4  H5  H6  S1  O1  C1  C2  H1  H2  H3  H4  H5  H6  S1  O1  C1  C2  
H1  H2  H3  H4  H5  H6  S1  O1  C1  C2  H1  H2  H3  H4  H5  H6  S1  O1  C1  C2  
H1  H2  H3  H4  H5  H6  S1  O1  C1  C2  H1  H2  H3  H4  H5  H6  S1  O1  C1  C2  
H1  H2  H3  H4  H5  H6  S1  O1  C1  C2  H1  H2  H3  H4  H5  H6  S1  O1  C1  C2  
H1  H2  H3  H4  H5  H6  S1  O1  C1  C2  H1  H2  H3  H4  H5  H6  S1  O1  C1  C2  
H1  H2  H3  H4  H5  H6  S1  O1  C1  C2  H1  H2  H3  H4  H5  H6  S1  O1  C1  C2  
H1  H2  H3  H4  H5  H6  S1  O1  C1  C2  H1  H2  H3  H4  H5  H6  S1  O1  C1  C2  
H1  H2  H3  H4  H5  H6  S1  O1  C1  C2  H1  H2  H3  H4  H5  H6  S1  O1  C1  C2  
H1  H2  H3  H4  H5  H6  S1  O1  C1  C2  H1  H2  H3  H4  H5  H6  S1  O1  C1  C2  
H1  H2  H3  H4  H5  H6  S1  O1  C1  C2  H1  H2  H3  H4  H5  H6  S1  O1  C1  C2  
H1  H2  H3  H4  H5  H6  S1  O1  C1  C2  H1  H2  H3  H4  H5  H6  S1  O1  C1  C2  
H1  H2  H3  H4  H5  H6  S1  O1  C1  C2  H1  H2  H3  H4  H5  H6  S1  O1  C1  C2  
H1  H2  H3  H4  H5  H6  S1  O1  C1  C2  H1  H2  H3  H4  H5  H6  S1  O1  C1  C2  
H1  H2  H3  H4  H5  H6  S1  O1  C1  C2  H1  H2  H3  H4  H5  H6  S1  O1  C1  C2  
H1  H2  H3  H4  H5  H6  S1  O1  C1  C2  H1  H2  H3  H4  H5  H6  S1  O1  C1  C2  
H1  H2  H3  H4  H5  H6  S1  O1  C1  C2  H1  H2  H3  H4  H5  H6  S1  O1  C1  C2  
H1  H2  H3  H4  H5  H6  S1  O1  C1  C2  H1  H2  H3  H4  H5  H6  S1  O1  C1  C2  
H1  H2  H3  H4  H5  H6  S1  O1  C1  C2  H1  H2  H3  H4  H5  H6  S1  O1  C1  C2  
H1  H2  H3  H4  H5  H6  S1  O1  C1  C2  H1  H2  H3  H4  H5  H6  S1  O1  C1  C2  
H1  H2  H3  H4  H5  H6  S1  O1  C1  C2  H1  H2  H3  H4  H5  H6  S1  O1  C1  C2  
H1  H2  H3  H4  H5  H6  S1  O1  C1  C2  H1  H2  H3  H4  H5  H6  S1  O1  C1  C2  
H1  H2  H3  H4  H5  H6  S1  O1  C1  C2  H1  H2  H3  H4  H5  H6  S1  O1  C1  C2  
H1  H2  H3  H4  H5  H6  S1  O1  C1  C2  H1  H2  H3  H4  H5  H6  S1  O1  C1  C2  
H1  H2  H3  H4  H5  H6  S1  O1  C1  C2  H1  H2  H3  H4  H5  H6  S1  O1  C1  C2  
H1  H2  H3  H4  H5  H6  S1  O1  C1  C2  H1  H2  H3  H4  H5  H6  S1  O1  C1  C2  
H1  H2  H3  H4  H5  H6  S1  O1  C1  C2  H1  H2  H3  H4  H5  H6  S1  O1  C1  C2  
H1  H2  H3  H4  H5  H6  S1  O1  C1  C2  H1  H2  H3  H4  H5  H6  S1  O1  C1  C2  
H1  H2  H3  H4  H5  H6  S1  O1  C1  C2  H1  H2  H3  H4  H5  H6  S1  O1  C1  C2  
H1  H2  H3  H4  H5  H6  S1  O1  C1  C2  H1  H2  H3  H4  H5  H6  S1  O1  C1  C2  
H1  H2  H3  H4  H5  H6  S1  O1  C1  C2  H1  H2  H3  H4  H5  H6  S1  O1  C1  C2  
H1  H2  H3  H4  H5  H6  S1  O1  C1  C2  H1  H2  H3  H4  H5  H6  S1  O1  C1  C2  
H1  H2  H3  H4  H5  H6  S1  O1  C1  C2  H1  H2  H3  H4  H5  H6  S1  O1  C1  C2  
H1  H2  H3  H4  H5  H6  S1  O1  C1  C2  H1  H2  H3  H4  H5  H6  S1  O1  C1  C2  
H1  H2  H3  H4  H5  H6  S1  O1  C1  C2  H1  H2  H3  H4  H5  H6  S1  O1  C1  C2  
H1  H2  H3  H4  H5  H6  S1  O1  C1  C2  H1  H2  H3  H4  H5  H6  S1  O1  C1  C2  
H1  H2  H3  H4  H5  H6  S1  O1  C1  C2  H1  H2  H3  H4  H5  H6  S1  O1  C1  C2  
H1  H2  H3  H4  H5  H6  S1  O1  C1  C2  H1  H2  H3  H4  H5  H6  S1  O1  C1  C2  
H1  H2  H3  H4  H5  H6  S1  O1  C1  C2  H1  H2  H3  H4  H5  H6  S1  O1  C1  C2  
H1  H2  H3  H4  H5  H6  S1  O1  C1  C2  H1  H2  H3  H4  H5  H6  S1  O1  C1  C2  
H1  H2  H3  H4  H5  H6  S1  O1  C1  C2  H1  H2  H3  H4  H5  H6  S1  O1  C1  C2  
H1  H2  H3  H4  H5  H6  S1  O1  C1  C2  H1  H2  H3  H4  H5  H6  S1  O1  C1  C2  
H1  H2  H3  H4  H5  H6  S1  O1  C1  C2  H1  H2  H3  H4  H5  H6  S1  O1  C1  C2  
H1  H2  H3  H4  H5  H6  S1  O1  C1  C2  H1  H2  H3  H4  H5  H6  S1  O1  C1  C2  
H1  H2  H3  H4  H5  H6  S1  O1  C1  C2  H1  H2  H3  H4  H5  H6  S1  O1  C1  C2  
H1  H2  H3  H4  H5  H6  S1  O1  C1  C2  H1  H2  H3  H4  H5  H6  S1  O1  C1  C2  
H1  H2  H3  H4  H5  H6  S1  O1  C1  C2  H1  H2  H3  H4  H5  H6  S1  O1  C1  C2  
H1  H2  H3  H4  H5  H6  S1  O1  C1  C2  H1  H2  H3  H4  H5  H6  S1  O1  C1  C2  
H1  H2  H3  H4  H5  H6  S1  O1  C1  C2  H1  H2  H3  H4  H5  H6  S1  O1  C1  C2  
H1  H2  H3  H4  H5  H6  S1  O1  C1  C2  H1  H2  H3  H4  H5  H6  S1  O1  C1  C2  
H1  H2  H3  H4  H5  H6  S1  O1  C1  C2  H1  H2  H3  H4  H5  H6  S1  O1  C1  C2  
H1  H2  H3  H4  H5  H6  S1  O1  C1  C2  H1  H2  H3  H4  H5  H6  S1  O1  C1  C2  
H1  H2  H3  H4  H5  H6  S1  O1  C1  C2  H1  H2  H3  H4  H5  H6  S1  O1  C1  C2  
H1  H2  H3  H4  H5  H6  S1  O1  C1  C2  H1  H2  H3  H4  H5  H6  S1  O1  C1  C2  
H1  H2  H3  H4  H5  H6  S1  O1  C1  C2  H1  H2  H3  H4  H5  H6  S1  O1  C1  C2  
H1  H2  H3  H4  H5  H6  S1  O1  C1  C2  H1  H2  H3  H4  H5  H6  S1  O1  C1  C2  
H1  H2  H3  H4  H5  H6  S1  O1  C1  C2  H1  H2  H3  H4  H5  H6  S1  O1  C1  C2  
H1  H2  H3  H4  H5  H6  S1  O1  C1  C2  H1  H2  H3  H4  H5  H6  S1  O1  C1  C2  
H1  H2  H3  H4  H5  H6  S1  O1  C1  C2  H1  H2  H3  H4  H5  H6  S1  O1  C1  C2  
H1  H2  H3  H4  H5  H6  S1  O1  C1  C2  H1  H2  H3  H4  H5  H6  S1  O1  C1  C2  
H1  H2  H3  H4  H5  H6  S1  O1  C1  C2  H1  H2  H3  H4  H5  H6  S1  O1  C1  C2  
H1  H2  H3  H4  H5  H6  S1  O1  C1  C2  H1  H2  H3  H4  H5  H6  S1  O1  C1  C2  
H1  H2  H3  H4  H5  H6  S1  O1  C1  C2  H1  H2  H3  H4  H5  H6  S1  O1  C1  C2  
H1  H2  H3  H4  H5  H6  S1  O1  C1  C2  H1  H2  H3  H4  H5  H6  S1  O1  C1  C2  
H1  H2  H3  H4  H5  H6  S1  O1  C1  C2  H1  H2  H3  H4  H5  H6  S1  O1  C1  C2  
H1  H2  H3  H4  H5  H6  S1  O1  C1  C2  H1  H2  H3  H4  H5  H6  S1  O1  C1  C2  
H1  H2  H3  H4  H5  H6  S1  O1  C1  C2  H1  H2  H3  H4  H5  H6  S1  O1  C1  C2  
H1  H2  H3  H4  H5  H6  S1  O1  C1  C2  H1  H2  H3  H4  H5  H6  S1  O1  C1  C2  
H1  H2  H3  H4  H5  H6  S1  O1  C1  C2  H1  H2  H3  H4  H5  H6  S1  O1  C1  C2  
H1  H2  H3  H4  H5  H6  S1  O1  C1  C2  H1  H2  H3  H4  H5  H6  S1  O1  C1  C2  
H1  H2  H3  H4  H5  H6  S1  O1  C1  C2  H1  H2  H3  H4  H5  H6  S1  O1  C1  C2  
H1  H2  H3  H4  H5  H6  S1  O1  C1  C2  H1  H2  H3  H4  H5  H6  S1  O1  C1  C2  
H1  H2  H3  H4  H5  H6  S1  O1  C1  C2  H1  H2  H3  H4  H5  H6  S1  O1  C1  C2  
H1  H2  H3  H4  H5  H6  S1  O1  C1  C2  H1  H2  H3  H4  H5  H6  S1  O1  C1  C2  
H1  H2  H3  H4  H5  H6  S1  O1  C1  C2  H1  H2  H3  H4  H5  H6  S1  O1  C1  C2  
H1  H2  H3  H4  H5  H6  S1  O1  C1  C2  H1  H2  H3  H4  H5  H6  S1  O1  C1  C2  
H1  H2  H3  H4  H5  H6  S1  O1  C1  C2  H1  H2  H3  H4  H5  H6  S1  O1  C1  C2  
H1  H2  H3  H4  H5  H6  S1  O1  C1  C2  H1  H2  H3  H4  H5  H6  S1  O1  C1  C2  
H1  H2  H3  H4  H5  H6  S1  O1  C1  C2  H1  H2  H3  H4  H5  H6  S1  O1  C1  C2  
H1  H2  H3  H4  H5  H6  S1  O1  C1  C2  H1  H2  H3  H4  H5  H6  S1  O1  C1  C2  
H1  H2  H3  H4  H5  H6  S1  O1  C1  C2  H1  H2  H3  H4  H5  H6  S1  O1  C1  C2  
H1  H2  H3  H4  H5  H6  S1  O1  C1  C2  H1  H2  H3  H4  H5  H6  S1  O1  C1  C2  
H1  H2  H3  H4  H5  H6  S1  O1  C1  C2  H1  H2  H3  H4  H5  H6  S1  O1  C1  C2  
H1  H2  H3  H4  H5  H6  S1  O1  C1  C2  H1  H2  H3  H4  H5  H6  S1  O1  C1  C2  
H1  H2  H3  H4  H5  H6  S1  O1  C1  C2  H1  H2  H3  H4  H5  H6  S1  O1  C1  C2  
H1  H2  H3  H4  H5  H6  S1  O1  C1  C2  H1  H2  H3  H4  H5  H6  S1  O1  C1  C2  
H1  H2  H3  H4  H5  H6  S1  O1  C1  C2  H1  H2  H3  H4  H5  H6  S1  O1  C1  C2  
H1  H2  H3  H4  H5  H6  S1  O1  C1  C2  H1  H2  H3  H4  H5  H6  S1  O1  C1  C2  
H1  H2  H3  H4  H5  H6  S1  O1  C1  C2  H1  H2  H3  H4  H5  H6  S1  O1  C1  C2  
H1  H2  H3  H4  H5  H6  S1  O1  C1  C2  H1  H2  H3  H4  H5  H6  S1  O1  C1  C2  
H1  H2  H3  H4  H5  H6  S1  O1  C1  C2  H1  H2  H3  H4  H5  H6  S1  O1  C1  C2  
H1  H2  H3  H4  H5  H6  S1  O1  C1  C2  H1  H2  H3  H4  H5  H6  S1  O1  C1  C2  
H1  H2  H3  H4  H5  H6  S1  O1  C1  C2  H1  H2  H3  H4  H5  H6  S1  O1  C1  C2  
H1  H2  H3  H4  H5  H6  S1  O1  C1  C2  H1  H2  H3  H4  H5  H6  S1  O1  C1  C2  
H1  H2  H3  H4  H5  H6  S1  O1  C1  C2  H1  H2  H3  H4  H5  H6  S1  O1  C1  C2  
H1  H2  H3  H4  H5  H6  S1  O1  C1  C2  H1  H2  H3  H4  H5  H6  S1  O1  C1  C2  
H1  H2  H3  H4  H5  H6  S1  O1  C1  C2  H1  H2  H3  H4  H5  H6  S1  O1  C1  C2  
H1  H2  H3  H4  H5  H6  S1  O1  C1  C2  H1  H2  H3  H4  H5  H6  S1  O1  C1  C2  
H1  H2  H3  H4  H5  H6  S1  O1  C1  C2  H1  H2  H3  H4  H5  H6  S1  O1  C1  C2  
H1  H2  H3  H4  H5  H6  S1  O1  C1  C2  H1  H2  H3  H4  H5  H6  S1  O1  C1  C2  
H1  H2  H3  H4  H5  H6  S1  O1  C1  C2  H1  H2  H3  H4  H5  H6  S1  O1  C1  C2  
H1  H2  H3  H4  H5  H6  S1  O1  C1  C2  H1  H2  H3  H4  H5  H6  S1  O1  C1  C2  
H1  H2  H3  H4  H5  H6  S1  O1  C1  C2  H1  H2  H3  H4  H5  H6  S1  O1  C1  C2  
H1  H2  H3  H4  H5  H6  S1  O1  C1  C2  H1  H2  H3  H4  H5  H6  S1  O1  C1  C2  
H1  H2  H3  H4  H5  H6  S1  O1  C1  C2  H1  H2  H3  H4  H5  H6  S1  O1  C1  C2  
H1  H2  H3  H4  H5  H6  S1  O1  C1  C2  H1  H2  H3  H4  H5  H6  S1  O1  C1  C2  
H1  H2  H3  H4  H5  H6  S1  O1  C1  C2  H1  H2  H3  H4  H5  H6  S1  O1  C1  C2  
H1  H2  H3  H4  H5  H6  S1  O1  C1  C2  H1  H2  H3  H4  H5  H6  S1  O1  C1  C2  
H1  H2  H3  H4  H5  H6  S1  O1  C1  C2  H1  H2  H3  H4  H5  H6  S1  O1  C1  C2  
H1  H2  H3  H4  H5  H6  S1  O1  C1  C2  H1  H2  H3  H4  H5  H6  S1  O1  C1  C2  
H1  H2  H3  H4  H5  H6  S1  O1  C1  C2  H1  H2  H3  H4  H5  H6  S1  O1  C1  C2  
H1  H2  H3  H4  H5  H6  S1  O1  C1  C2  H1  H2  H3  H4  H5  H6  S1  O1  C1  C2  
H1  H2  H3  H4  H5  H6  S1  O1  C1  C2  H1  H2  H3  H4  H5  H6  S1  O1  C1  C2  
H1  H2  H3  H4  H5  H6  S1  O1  C1  C2  H1  H2  H3  H4  H5  H6  S1  O1  C1  C2  
H1  H2  H3  H4  H5  H6  S1  O1  C1  C2  H1  H2  H3  H4  H5  H6  S1  O1  C1  C2  
H1  H2  H3  H4  H5  H6  S1  O1  C1  C2  H1  H2  H3  H4  H5  H6  S1  O1  C1  C2  
H1  H2  H3  H4  H5  H6  S1  O1  C1  C2  H1  H2  H3  H4  H5  H6  S1  O1  C1  C2  
H1  H2  H3  H4  H5  H6  S1  O1  C1  C2  H1  H2  H3  H4  H5  H6  S1  O1  C1  C2  
H1  H2  H3  H4  H5  H6  S1  O1  C1  C2  H1  H2  H3  H4  H5  H6  S1  O1  C1  C2  
H1  H2  H3  H4  H5  H6  S1  O1  C1  C2  H1  H2  H3  H4  H5  H6  S1  O1  C1  C2  
H1  H2  H3  H4  H5  H6  S1  O1  C1  C2  H1  H2  H3  H4  H5  H6  S1  O1  C1  C2  
H1  H2  H3  H4  H5  H6  S1  O1  C1  C2  H1  H2  H3  H4  H5  H6  S1  O1  C1  C2  
H1  H2  H3  H4  H5  H6  S1  O1  C1  C2  H1  H2  H3  H4  H5  H6  S1  O1  C1  C2  
H1  H2  H3  H4  H5  H6  S1  O1  C1  C2  H1  H2  H3  H4  H5  H6  S1  O1  C1  C2  
H1  H2  H3  H4  H5  H6  S1  O1  C1  C2  H1  H2  H3  H4  H5  H6  S1  O1  C1  C2  
H1  H2  H3  H4  H5  H6  S1  O1  C1  C2  H1  H2  H3  H4  H5  H6  S1  O1  C1  C2  
H1  H2  H3  H4  H5  H6  S1  O1  C1  C2  H1  H2  H3  H4  H5  H6  S1  O1  C1  C2  
H1  H2  H3  H4  H5  H6  S1  O1  C1  C2  H1  H2  H3  H4  H5  H6  S1  O1  C1  C2  
H1  H2  H3  H4  H5  H6  S1  O1  C1  C2  H1  H2  H3  H4  H5  H6  S1  O1  C1  C2  
H1  H2  H3  H4  H5  H6  S1  O1  C1  C2  H1  H2  H3  H4  H5  H6  S1  O1  C1  C2  
H1  H2  H3  H4  H5  H6  S1  O1  C1  C2  H1  H2  H3  H4  H5  H6  S1  O1  C1  C2  
H1  H2  H3  H4  H5  H6  S1  O1  C1  C2  H1  H2  H3  H4  H5  H6  S1  O1  C1  C2  
H1  H2  H3  H4  H5  H6  S1  O1  C1  C2  H1  H2  H3  H4  H5  H6  S1  O1  C1  C2  
H1  H2  H3  H4  H5  H6  S1  O1  C1  C2  H1  H2  H3  H4  H5  H6  S1  O1  C1  C2  
H1  H2  H3  H4  H5  H6  S1  O1  C1  C2  H1  H2  H3  H4  H5  H6  S1  O1  C1  C2  
H1  H2  H3  H4  H5  H6  S1  O1  C1  C2  H1  H2  H3  H4  H5  H6  S1  O1  C1  C2  
H1  H2  H3  H4  H5  H6  S1  O1  C1  C2  H1  H2  H3  H4  H5  H6  S1  O1  C1  C2  
H1  H2  H3  H4  H5  H6  S1  O1  C1  C2  H1  H2  H3  H4  H5  H6  S1  O1  C1  C2  
H1  H2  H3  H4  H5  H6  S1  O1  C1  C2  H1  H2  H3  H4  H5  H6  S1  O1  C1  C2  
H1  H2  H3  H4  H5  H6  S1  O1  C1  C2  H1  H2  H3  H4  H5  H6  S1  O1  C1  C2  
H1  H2  H3  H4  H5  H6  S1  O1  C1  C2  H1  H2  H3  H4  H5  H6  S1  O1  C1  C2  
H1  H2  H3  H4  H5  H6  S1  O1  C1  C2  H1  H2  H3  H4  H5  H6  S1  O1  C1  C2  
H1  H2  H3  H4  H5  H6  S1  O1  C1  C2  H1  H2  H3  H4  H5  H6  S1  O1  C1  C2  
H1  H2  H3  H4  H5  H6  S1  O1  C1  C2  H1  H2  H3  H4  H5  H6  S1  O1  C1  C2  
H1  H2  H3  H4  H5  H6  S1  O1  C1  C2  H1  H2  H3  H4  H5  H6  S1  O1  C1  C2  
H1  H2  H3  H4  H5  H6  S1  O1  C1  C2  H1  H2  H3  H4  H5  H6  S1  O1  C1  C2  
H1  H2  H3  H4  H5  H6  S1  O1  C1  C2  H1  H2  H3  H4  H5  H6  S1  O1  C1  C2  
H1  H2  H3  H4  H5  H6  S1  O1  C1  C2  H1  H2  H3  H4  H5  H6  S1  O1  C1  C2  
H1  H2  H3  H4  H5  H6  S1  O1  C1  C2  H1  H2  H3  H4  H5  H6  S1  O1  C1  C2  
H1  H2  H3  H4  H5  H6  S1  O1  C1  C2  H1  H2  H3  H4  H5  H6  S1  O1  C1  C2  
H1  H2  H3  H4  H5  H6  S1  O1  C1  C2  H1  H2  H3  H4  H5  H6  S1  O1  C1  C2  
H1  H2  H3  H4  H5  H6  S1  O1  C1  C2  H1  H2  H3  H4  H5  H6  S1  O1  C1  C2  
H1  H2  H3  H4  H5  H6  S1  O1  C1  C2  H1  H2  H3  H4  H5  H6  S1  O1  C1  C2  
H1  H2  H3  H4  H5  H6  S1  O1  C1  C2  H1  H2  H3  H4  H5  H6  S1  O1  C1  C2  
H1  H2  H3  H4  H5  H6  S1  O1  C1  C2  H1  H2  H3  H4  H5  H6  S1  O1  C1  C2  
H1  H2  H3  H4  H5  H6  S1  O1  C1  C2  H1  H2  H3  H4  H5  H6  S1  O1  C1  C2  
H1  H2  H3  H4  H5  H6  S1  O1  C1  C2  H1  H2  H3  H4  H5  H6  S1  O1  C1  C2  
H1  H2  H3  H4  H5  H6  S1  O1  C1  C2  H1  H2  H3  H4  H5  H6  S1  O1  C1  C2  
H1  H2  H3  H4  H5  H6  S1  O1  C1  C2  H1  H2  H3  H4  H5  H6  S1  O1  C1  C2  
H1  H2  H3  H4  H5  H6  S1  O1  C1  C2  H1  H2  H3  H4  H5  H6  S1  O1  C1  C2  
H1  H2  H3  H4  H5  H6  S1  O1  C1  C2  H1  H2  H3  H4  H5  H6  S1  O1  C1  C2  
H1  H2  H3  H4  H5  H6  S1  O1  C1  C2  H1  H2  H3  H4  H5  H6  S1  O1  C1  C2  
H1  H2  H3  H4  H5  H6  S1  O1  C1  C2  H1  H2  H3  H4  H5  H6  S1  O1  C1  C2  
H1  H2  H3  H4  H5  H6  S1  O1  C1  C2  H1  H2  H3  H4  H5  H6  S1  O1  C1  C2  
H1  H2  H3  H4  H5  H6  S1  O1  C1  C2  H1  H2  H3  H4  H5  H6  
%FLAG CHARGE                                                                    
%FORMAT(5E16.8)                                                                 
 -1.01698656E+01 -1.01698656E+01 -1.13342706E+01 -1.13342706E+01 -2.72605608E+00
 -2.72605608E+00  2.81716758E+00  2.81716758E+00 -2.09556450E+00 -2.09556450E+00
 -4.07450628E+00 -4.07450628E+00  3.91050558E+00  3.91050558E+00  1.08659575E+01
  1.08659575E+01 -6.01335900E-01 -6.01335900E-01 -3.77201610E+00 -3.77201610E+00
 -3.40757010E+00 -3.40757010E+00 -1.07511570E+00 -1.07511570E+00  2.98845720E+00
  2.98845720E+00  8.26927974E+00  8.26927974E+00  2.87912340E+00  2.87912340E+00
  2.49645510E+00  2.49645510E+00  2.55112200E+00  2.55112200E+00  2.47823280E+00
  2.47823280E+00  4.89450978E+00 -9.22412826E+00 -2.38347684E+00 -2.38347684E+00
  1.51913848E+00  1.51913848E+00  1.51913848E+00  1.51913848E+00  1.51913848E+00
  1.51913848E+00  4.89450978E+00 -9.22412826E+00 -2.38347684E+00 -2.38347684E+00
  1.51913848E+00  1.51913848E+00  1.51913848E+00  1.51913848E+00  1.51913848E+00
  1.51913848E+00  4.89450978E+00 -9.22412826E+00 -2.38347684E+00 -2.38347684E+00
  1.51913848E+00  1.51913848E+00  1.51913848E+00  1.51913848E+00  1.51913848E+00
  1.51913848E+00  4.89450978E+00 -9.22412826E+00 -2.38347684E+00 -2.38347684E+00
  1.51913848E+00  1.51913848E+00  1.51913848E+00  1.51913848E+00  1.51913848E+00
  1.51913848E+00  4.89450978E+00 -9.22412826E+00 -2.38347684E+00 -2.38347684E+00
  1.51913848E+00  1.51913848E+00  1.51913848E+00  1.51913848E+00  1.51913848E+00
  1.51913848E+00  4.89450978E+00 -9.22412826E+00 -2.38347684E+00 -2.38347684E+00
  1.51913848E+00  1.51913848E+00  1.51913848E+00  1.51913848E+00  1.51913848E+00
  1.51913848E+00  4.89450978E+00 -9.22412826E+00 -2.38347684E+00 -2.38347684E+00
  1.51913848E+00  1.51913848E+00  1.51913848E+00  1.51913848E+00  1.51913848E+00
  1.51913848E+00  4.89450978E+00 -9.22412826E+00 -2.38347684E+00 -2.38347684E+00
  1.51913848E+00  1.51913848E+00  1.51913848E+00  1.51913848E+00  1.51913848E+00
  1.51913848E+00  4.89450978E+00 -9.22412826E+00 -2.38347684E+00 -2.38347684E+00
  1.51913848E+00  1.51913848E+00  1.51913848E+00  1.51913848E+00  1.51913848E+00
  1.51913848E+00  4.89450978E+00 -9.22412826E+00 -2.38347684E+00 -2.38347684E+00
  1.51913848E+00  1.51913848E+00  1.51913848E+00  1.51913848E+00  1.51913848E+00
  1.51913848E+00  4.89450978E+00 -9.22412826E+00 -2.38347684E+00 -2.38347684E+00
  1.51913848E+00  1.51913848E+00  1.51913848E+00  1.51913848E+00  1.51913848E+00
  1.51913848E+00  4.89450978E+00 -9.22412826E+00 -2.38347684E+00 -2.38347684E+00
  1.51913848E+00  1.51913848E+00  1.51913848E+00  1.51913848E+00  1.51913848E+00
  1.51913848E+00  4.89450978E+00 -9.22412826E+00 -2.38347684E+00 -2.38347684E+00
  1.51913848E+00  1.51913848E+00  1.51913848E+00  1.51913848E+00  1.51913848E+00
  1.51913848E+00  4.89450978E+00 -9.22412826E+00 -2.38347684E+00 -2.38347684E+00
  1.51913848E+00  1.51913848E+00  1.51913848E+00  1.51913848E+00  1.51913848E+00
  1.51913848E+00  4.89450978E+00 -9.22412826E+00 -2.38347684E+00 -2.38347684E+00
  1.51913848E+00  1.51913848E+00  1.51913848E+00  1.51913848E+00  1.51913848E+00
  1.51913848E+00  4.89450978E+00 -9.22412826E+00 -2.38347684E+00 -2.38347684E+00
  1.51913848E+00  1.51913848E+00  1.51913848E+00  1.51913848E+00  1.51913848E+00
  1.51913848E+00  4.89450978E+00 -9.22412826E+00 -2.38347684E+00 -2.38347684E+00
  1.51913848E+00  1.51913848E+00  1.51913848E+00  1.51913848E+00  1.51913848E+00
  1.51913848E+00  4.89450978E+00 -9.22412826E+00 -2.38347684E+00 -2.38347684E+00
  1.51913848E+00  1.51913848E+00  1.51913848E+00  1.51913848E+00  1.51913848E+00
  1.51913848E+00  4.89450978E+00 -9.22412826E+00 -2.38347684E+00 -2.38347684E+00
  1.51913848E+00  1.51913848E+00  1.51913848E+00  1.51913848E+00  1.51913848E+00
  1.51913848E+00  4.89450978E+00 -9.22412826E+00 -2.38347684E+00 -2.38347684E+00
  1.51913848E+00  1.51913848E+00  1.51913848E+00  1.51913848E+00  1.51913848E+00
  1.51913848E+00  4.89450978E+00 -9.22412826E+00 -2.38347684E+00 -2.38347684E+00
  1.51913848E+00  1.51913848E+00  1.51913848E+00  1.51913848E+00  1.51913848E+00
  1.51913848E+00  4.89450978E+00 -9.22412826E+00 -2.38347684E+00 -2.38347684E+00
  1.51913848E+00  1.51913848E+00  1.51913848E+00  1.51913848E+00  1.51913848E+00
  1.51913848E+00  4.89450978E+00 -9.22412826E+00 -2.38347684E+00 -2.38347684E+00
  1.51913848E+00  1.51913848E+00  1.51913848E+00  1.51913848E+00  1.51913848E+00
  1.51913848E+00  4.89450978E+00 -9.22412826E+00 -2.38347684E+00 -2.38347684E+00
  1.51913848E+00  1.51913848E+00  1.51913848E+00  1.51913848E+00  1.51913848E+00
  1.51913848E+00  4.89450978E+00 -9.22412826E+00 -2.38347684E+00 -2.38347684E+00
  1.51913848E+00  1.51913848E+00  1.51913848E+00  1.51913848E+00  1.51913848E+00
  1.51913848E+00  4.89450978E+00 -9.22412826E+00 -2.38347684E+00 -2.38347684E+00
  1.51913848E+00  1.51913848E+00  1.51913848E+00  1.51913848E+00  1.51913848E+00
  1.51913848E+00  4.89450978E+00 -9.22412826E+00 -2.38347684E+00 -2.38347684E+00
  1.51913848E+00  1.51913848E+00  1.51913848E+00  1.51913848E+00  1.51913848E+00
  1.51913848E+00  4.89450978E+00 -9.22412826E+00 -2.38347684E+00 -2.38347684E+00
  1.51913848E+00  1.51913848E+00  1.51913848E+00  1.51913848E+00  1.51913848E+00
  1.51913848E+00  4.89450978E+00 -9.22412826E+00 -2.38347684E+00 -2.38347684E+00
  1.51913848E+00  1.51913848E+00  1.51913848E+00  1.51913848E+00  1.51913848E+00
  1.51913848E+00  4.89450978E+00 -9.22412826E+00 -2.38347684E+00 -2.38347684E+00
  1.51913848E+00  1.51913848E+00  1.51913848E+00  1.51913848E+00  1.51913848E+00
  1.51913848E+00  4.89450978E+00 -9.22412826E+00 -2.38347684E+00 -2.38347684E+00
  1.51913848E+00  1.51913848E+00  1.51913848E+00  1.51913848E+00  1.51913848E+00
  1.51913848E+00  4.89450978E+00 -9.22412826E+00 -2.38347684E+00 -2.38347684E+00
  1.51913848E+00  1.51913848E+00  1.51913848E+00  1.51913848E+00  1.51913848E+00
  1.51913848E+00  4.89450978E+00 -9.22412826E+00 -2.38347684E+00 -2.38347684E+00
  1.51913848E+00  1.51913848E+00  1.51913848E+00  1.51913848E+00  1.51913848E+00
  1.51913848E+00  4.89450978E+00 -9.22412826E+00 -2.38347684E+00 -2.38347684E+00
  1.51913848E+00  1.51913848E+00  1.51913848E+00  1.51913848E+00  1.51913848E+00
  1.51913848E+00  4.89450978E+00 -9.22412826E+00 -2.38347684E+00 -2.38347684E+00
  1.51913848E+00  1.51913848E+00  1.51913848E+00  1.51913848E+00  1.51913848E+00
  1.51913848E+00  4.89450978E+00 -9.22412826E+00 -2.38347684E+00 -2.38347684E+00
  1.51913848E+00  1.51913848E+00  1.51913848E+00  1.51913848E+00  1.51913848E+00
  1.51913848E+00  4.89450978E+00 -9.22412826E+00 -2.38347684E+00 -2.38347684E+00
  1.51913848E+00  1.51913848E+00  1.51913848E+00  1.51913848E+00  1.51913848E+00
  1.51913848E+00  4.89450978E+00 -9.22412826E+00 -2.38347684E+00 -2.38347684E+00
  1.51913848E+00  1.51913848E+00  1.51913848E+00  1.51913848E+00  1.51913848E+00
  1.51913848E+00  4.89450978E+00 -9.22412826E+00 -2.38347684E+00 -2.38347684E+00
  1.51913848E+00  1.51913848E+00  1.51913848E+00  1.51913848E+00  1.51913848E+00
  1.51913848E+00  4.89450978E+00 -9.22412826E+00 -2.38347684E+00 -2.38347684E+00
  1.51913848E+00  1.51913848E+00  1.51913848E+00  1.51913848E+00  1.51913848E+00
  1.51913848E+00  4.89450978E+00 -9.22412826E+00 -2.38347684E+00 -2.38347684E+00
  1.51913848E+00  1.51913848E+00  1.51913848E+00  1.51913848E+00  1.51913848E+00
  1.51913848E+00  4.89450978E+00 -9.22412826E+00 -2.38347684E+00 -2.38347684E+00
  1.51913848E+00  1.51913848E+00  1.51913848E+00  1.51913848E+00  1.51913848E+00
  1.51913848E+00  4.89450978E+00 -9.22412826E+00 -2.38347684E+00 -2.38347684E+00
  1.51913848E+00  1.51913848E+00  1.51913848E+00  1.51913848E+00  1.51913848E+00
  1.51913848E+00  4.89450978E+00 -9.22412826E+00 -2.38347684E+00 -2.38347684E+00
  1.51913848E+00  1.51913848E+00  1.51913848E+00  1.51913848E+00  1.51913848E+00
  1.51913848E+00  4.89450978E+00 -9.22412826E+00 -2.38347684E+00 -2.38347684E+00
  1.51913848E+00  1.51913848E+00  1.51913848E+00  1.51913848E+00  1.51913848E+00
  1.51913848E+00  4.89450978E+00 -9.22412826E+00 -2.38347684E+00 -2.38347684E+00
  1.51913848E+00  1.51913848E+00  1.51913848E+00  1.51913848E+00  1.51913848E+00
  1.51913848E+00  4.89450978E+00 -9.22412826E+00 -2.38347684E+00 -2.38347684E+00
  1.51913848E+00  1.51913848E+00  1.51913848E+00  1.51913848E+00  1.51913848E+00
  1.51913848E+00  4.89450978E+00 -9.22412826E+00 -2.38347684E+00 -2.38347684E+00
  1.51913848E+00  1.51913848E+00  1.51913848E+00  1.51913848E+00  1.51913848E+00
  1.51913848E+00  4.89450978E+00 -9.22412826E+00 -2.38347684E+00 -2.38347684E+00
  1.51913848E+00  1.51913848E+00  1.51913848E+00  1.51913848E+00  1.51913848E+00
  1.51913848E+00  4.89450978E+00 -9.22412826E+00 -2.38347684E+00 -2.38347684E+00
  1.51913848E+00  1.51913848E+00  1.51913848E+00  1.51913848E+00  1.51913848E+00
  1.51913848E+00  4.89450978E+00 -9.22412826E+00 -2.38347684E+00 -2.38347684E+00
  1.51913848E+00  1.51913848E+00  1.51913848E+00  1.51913848E+00  1.51913848E+00
  1.51913848E+00  4.89450978E+00 -9.22412826E+00 -2.38347684E+00 -2.38347684E+00
  1.51913848E+00  1.51913848E+00  1.51913848E+00  1.51913848E+00  1.51913848E+00
  1.51913848E+00  4.89450978E+00 -9.22412826E+00 -2.38347684E+00 -2.38347684E+00
  1.51913848E+00  1.51913848E+00  1.51913848E+00  1.51913848E+00  1.51913848E+00
  1.51913848E+00  4.89450978E+00 -9.22412826E+00 -2.38347684E+00 -2.38347684E+00
  1.51913848E+00  1.51913848E+00  1.51913848E+00  1.51913848E+00  1.51913848E+00
  1.51913848E+00  4.89450978E+00 -9.22412826E+00 -2.38347684E+00 -2.38347684E+00
  1.51913848E+00  1.51913848E+00  1.51913848E+00  1.51913848E+00  1.51913848E+00
  1.51913848E+00  4.89450978E+00 -9.22412826E+00 -2.38347684E+00 -2.38347684E+00
  1.51913848E+00  1.51913848E+00  1.51913848E+00  1.51913848E+00  1.51913848E+00
  1.51913848E+00  4.89450978E+00 -9.22412826E+00 -2.38347684E+00 -2.38347684E+00
  1.51913848E+00  1.51913848E+00  1.51913848E+00  1.51913848E+00  1.51913848E+00
  1.51913848E+00  4.89450978E+00 -9.22412826E+00 -2.38347684E+00 -2.38347684E+00
  1.51913848E+00  1.51913848E+00  1.51913848E+00  1.51913848E+00  1.51913848E+00
  1.51913848E+00  4.89450978E+00 -9.22412826E+00 -2.38347684E+00 -2.38347684E+00
  1.51913848E+00  1.51913848E+00  1.51913848E+00  1.51913848E+00  1.51913848E+00
  1.51913848E+00  4.89450978E+00 -9.22412826E+00 -2.38347684E+00 -2.38347684E+00
  1.51913848E+00  1.51913848E+00  1.51913848E+00  1.51913848E+00  1.51913848E+00
  1.51913848E+00  4.89450978E+00 -9.22412826E+00 -2.38347684E+00 -2.38347684E+00
  1.51913848E+00  1.51913848E+00  1.51913848E+00  1.51913848E+00  1.51913848E+00
  1.51913848E+00  4.89450978E+00 -9.22412826E+00 -2.38347684E+00 -2.38347684E+00
  1.51913848E+00  1.51913848E+00  1.51913848E+00  1.51913848E+00  1.51913848E+00
  1.51913848E+00  4.89450978E+00 -9.22412826E+00 -2.38347684E+00 -2.38347684E+00
  1.51913848E+00  1.51913848E+00  1.51913848E+00  1.51913848E+00  1.51913848E+00
  1.51913848E+00  4.89450978E+00 -9.22412826E+00 -2.38347684E+00 -2.38347684E+00
  1.51913848E+00  1.51913848E+00  1.51913848E+00  1.51913848E+00  1.51913848E+00
  1.51913848E+00  4.89450978E+00 -9.22412826E+00 -2.38347684E+00 -2.38347684E+00
  1.51913848E+00  1.51913848E+00  1.51913848E+00  1.51913848E+00  1.51913848E+00
  1.51913848E+00  4.89450978E+00 -9.22412826E+00 -2.38347684E+00 -2.38347684E+00
  1.51913848E+00  1.51913848E+00  1.51913848E+00  1.51913848E+00  1.51913848E+00
  1.51913848E+00  4.89450978E+00 -9.22412826E+00 -2.38347684E+00 -2.38347684E+00
  1.51913848E+00  1.51913848E+00  1.51913848E+00  1.51913848E+00  1.51913848E+00
  1.51913848E+00  4.89450978E+00 -9.22412826E+00 -2.38347684E+00 -2.38347684E+00
  1.51913848E+00  1.51913848E+00  1.51913848E+00  1.51913848E+00  1.51913848E+00
  1.51913848E+00  4.89450978E+00 -9.22412826E+00 -2.38347684E+00 -2.38347684E+00
  1.51913848E+00  1.51913848E+00  1.51913848E+00  1.51913848E+00  1.51913848E+00
  1.51913848E+00  4.89450978E+00 -9.22412826E+00 -2.38347684E+00 -2.38347684E+00
  1.51913848E+00  1.51913848E+00  1.51913848E+00  1.51913848E+00  1.51913848E+00
  1.51913848E+00  4.89450978E+00 -9.22412826E+00 -2.38347684E+00 -2.38347684E+00
  1.51913848E+00  1.51913848E+00  1.51913848E+00  1.51913848E+00  1.51913848E+00
  1.51913848E+00  4.89450978E+00 -9.22412826E+00 -2.38347684E+00 -2.38347684E+00
  1.51913848E+00  1.51913848E+00  1.51913848E+00  1.51913848E+00  1.51913848E+00
  1.51913848E+00  4.89450978E+00 -9.22412826E+00 -2.38347684E+00 -2.38347684E+00
  1.51913848E+00  1.51913848E+00  1.51913848E+00  1.51913848E+00  1.51913848E+00
  1.51913848E+00  4.89450978E+00 -9.22412826E+00 -2.38347684E+00 -2.38347684E+00
  1.51913848E+00  1.51913848E+00  1.51913848E+00  1.51913848E+00  1.51913848E+00
  1.51913848E+00  4.89450978E+00 -9.22412826E+00 -2.38347684E+00 -2.38347684E+00
  1.51913848E+00  1.51913848E+00  1.51913848E+00  1.51913848E+00  1.51913848E+00
  1.51913848E+00  4.89450978E+00 -9.22412826E+00 -2.38347684E+00 -2.38347684E+00
  1.51913848E+00  1.51913848E+00  1.51913848E+00  1.51913848E+00  1.51913848E+00
  1.51913848E+00  4.89450978E+00 -9.22412826E+00 -2.38347684E+00 -2.38347684E+00
  1.51913848E+00  1.51913848E+00  1.51913848E+00  1.51913848E+00  1.51913848E+00
  1.51913848E+00  4.89450978E+00 -9.22412826E+00 -2.38347684E+00 -2.38347684E+00
  1.51913848E+00  1.51913848E+00  1.51913848E+00  1.51913848E+00  1.51913848E+00
  1.51913848E+00  4.89450978E+00 -9.22412826E+00 -2.38347684E+00 -2.38347684E+00
  1.51913848E+00  1.51913848E+00  1.51913848E+00  1.51913848E+00  1.51913848E+00
  1.51913848E+00  4.89450978E+00 -9.22412826E+00 -2.38347684E+00 -2.38347684E+00
  1.51913848E+00  1.51913848E+00  1.51913848E+00  1.51913848E+00  1.51913848E+00
  1.51913848E+00  4.89450978E+00 -9.22412826E+00 -2.38347684E+00 -2.38347684E+00
  1.51913848E+00  1.51913848E+00  1.51913848E+00  1.51913848E+00  1.51913848E+00
  1.51913848E+00  4.89450978E+00 -9.22412826E+00 -2.38347684E+00 -2.38347684E+00
  1.51913848E+00  1.51913848E+00  1.51913848E+00  1.51913848E+00  1.51913848E+00
  1.51913848E+00  4.89450978E+00 -9.22412826E+00 -2.38347684E+00 -2.38347684E+00
  1.51913848E+00  1.51913848E+00  1.51913848E+00  1.51913848E+00  1.51913848E+00
  1.51913848E+00  4.89450978E+00 -9.22412826E+00 -2.38347684E+00 -2.38347684E+00
  1.51913848E+00  1.51913848E+00  1.51913848E+00  1.51913848E+00  1.51913848E+00
  1.51913848E+00  4.89450978E+00 -9.22412826E+00 -2.38347684E+00 -2.38347684E+00
  1.51913848E+00  1.51913848E+00  1.51913848E+00  1.51913848E+00  1.51913848E+00
  1.51913848E+00  4.89450978E+00 -9.22412826E+00 -2.38347684E+00 -2.38347684E+00
  1.51913848E+00  1.51913848E+00  1.51913848E+00  1.51913848E+00  1.51913848E+00
  1.51913848E+00  4.89450978E+00 -9.22412826E+00 -2.38347684E+00 -2.38347684E+00
  1.51913848E+00  1.51913848E+00  1.51913848E+00  1.51913848E+00  1.51913848E+00
  1.51913848E+00  4.89450978E+00 -9.22412826E+00 -2.38347684E+00 -2.38347684E+00
  1.51913848E+00  1.51913848E+00  1.51913848E+00  1.51913848E+00  1.51913848E+00
  1.51913848E+00  4.89450978E+00 -9.22412826E+00 -2.38347684E+00 -2.38347684E+00
  1.51913848E+00  1.51913848E+00  1.51913848E+00  1.51913848E+00  1.51913848E+00
  1.51913848E+00  4.89450978E+00 -9.22412826E+00 -2.38347684E+00 -2.38347684E+00
  1.51913848E+00  1.51913848E+00  1.51913848E+00  1.51913848E+00  1.51913848E+00
  1.51913848E+00  4.89450978E+00 -9.22412826E+00 -2.38347684E+00 -2.38347684E+00
  1.51913848E+00  1.51913848E+00  1.51913848E+00  1.51913848E+00  1.51913848E+00
  1.51913848E+00  4.89450978E+00 -9.22412826E+00 -2.38347684E+00 -2.38347684E+00
  1.51913848E+00  1.51913848E+00  1.51913848E+00  1.51913848E+00  1.51913848E+00
  1.51913848E+00  4.89450978E+00 -9.22412826E+00 -2.38347684E+00 -2.38347684E+00
  1.51913848E+00  1.51913848E+00  1.51913848E+00  1.51913848E+00  1.51913848E+00
  1.51913848E+00  4.89450978E+00 -9.22412826E+00 -2.38347684E+00 -2.38347684E+00
  1.51913848E+00  1.51913848E+00  1.51913848E+00  1.51913848E+00  1.51913848E+00
  1.51913848E+00  4.89450978E+00 -9.22412826E+00 -2.38347684E+00 -2.38347684E+00
  1.51913848E+00  1.51913848E+00  1.51913848E+00  1.51913848E+00  1.51913848E+00
  1.51913848E+00  4.89450978E+00 -9.22412826E+00 -2.38347684E+00 -2.38347684E+00
  1.51913848E+00  1.51913848E+00  1.51913848E+00  1.51913848E+00  1.51913848E+00
  1.51913848E+00  4.89450978E+00 -9.22412826E+00 -2.38347684E+00 -2.38347684E+00
  1.51913848E+00  1.51913848E+00  1.51913848E+00  1.51913848E+00  1.51913848E+00
  1.51913848E+00  4.89450978E+00 -9.22412826E+00 -2.38347684E+00 -2.38347684E+00
  1.51913848E+00  1.51913848E+00  1.51913848E+00  1.51913848E+00  1.51913848E+00
  1.51913848E+00  4.89450978E+00 -9.22412826E+00 -2.38347684E+00 -2.38347684E+00
  1.51913848E+00  1.51913848E+00  1.51913848E+00  1.51913848E+00  1.51913848E+00
  1.51913848E+00  4.89450978E+00 -9.22412826E+00 -2.38347684E+00 -2.38347684E+00
  1.51913848E+00  1.51913848E+00  1.51913848E+00  1.51913848E+00  1.51913848E+00
  1.51913848E+00  4.89450978E+00 -9.22412826E+00 -2.38347684E+00 -2.38347684E+00
  1.51913848E+00  1.51913848E+00  1.51913848E+00  1.51913848E+00  1.51913848E+00
  1.51913848E+00  4.89450978E+00 -9.22412826E+00 -2.38347684E+00 -2.38347684E+00
  1.51913848E+00  1.51913848E+00  1.51913848E+00  1.51913848E+00  1.51913848E+00
  1.51913848E+00  4.89450978E+00 -9.22412826E+00 -2.38347684E+00 -2.38347684E+00
  1.51913848E+00  1.51913848E+00  1.51913848E+00  1.51913848E+00  1.51913848E+00
  1.51913848E+00  4.89450978E+00 -9.22412826E+00 -2.38347684E+00 -2.38347684E+00
  1.51913848E+00  1.51913848E+00  1.51913848E+00  1.51913848E+00  1.51913848E+00
  1.51913848E+00  4.89450978E+00 -9.22412826E+00 -2.38347684E+00 -2.38347684E+00
  1.51913848E+00  1.51913848E+00  1.51913848E+00  1.51913848E+00  1.51913848E+00
  1.51913848E+00  4.89450978E+00 -9.22412826E+00 -2.38347684E+00 -2.38347684E+00
  1.51913848E+00  1.51913848E+00  1.51913848E+00  1.51913848E+00  1.51913848E+00
  1.51913848E+00  4.89450978E+00 -9.22412826E+00 -2.38347684E+00 -2.38347684E+00
  1.51913848E+00  1.51913848E+00  1.51913848E+00  1.51913848E+00  1.51913848E+00
  1.51913848E+00  4.89450978E+00 -9.22412826E+00 -2.38347684E+00 -2.38347684E+00
  1.51913848E+00  1.51913848E+00  1.51913848E+00  1.51913848E+00  1.51913848E+00
  1.51913848E+00  4.89450978E+00 -9.22412826E+00 -2.38347684E+00 -2.38347684E+00
  1.51913848E+00  1.51913848E+00  1.51913848E+00  1.51913848E+00  1.51913848E+00
  1.51913848E+00  4.89450978E+00 -9.22412826E+00 -2.38347684E+00 -2.38347684E+00
  1.51913848E+00  1.51913848E+00  1.51913848E+00  1.51913848E+00  1.51913848E+00
  1.51913848E+00  4.89450978E+00 -9.22412826E+00 -2.38347684E+00 -2.38347684E+00
  1.51913848E+00  1.51913848E+00  1.51913848E+00  1.51913848E+00  1.51913848E+00
  1.51913848E+00  4.89450978E+00 -9.22412826E+00 -2.38347684E+00 -2.38347684E+00
  1.51913848E+00  1.51913848E+00  1.51913848E+00  1.51913848E+00  1.51913848E+00
  1.51913848E+00  4.89450978E+00 -9.22412826E+00 -2.38347684E+00 -2.38347684E+00
  1.51913848E+00  1.51913848E+00  1.51913848E+00  1.51913848E+00  1.51913848E+00
  1.51913848E+00  4.89450978E+00 -9.22412826E+00 -2.38347684E+00 -2.38347684E+00
  1.51913848E+00  1.51913848E+00  1.51913848E+00  1.51913848E+00  1.51913848E+00
  1.51913848E+00  4.89450978E+00 -9.22412826E+00 -2.38347684E+00 -2.38347684E+00
  1.51913848E+00  1.51913848E+00  1.51913848E+00  1.51913848E+00  1.51913848E+00
  1.51913848E+00  4.89450978E+00 -9.22412826E+00 -2.38347684E+00 -2.38347684E+00
  1.51913848E+00  1.51913848E+00  1.51913848E+00  1.51913848E+00  1.51913848E+00
  1.51913848E+00  4.89450978E+00 -9.22412826E+00 -2.38347684E+00 -2.38347684E+00
  1.51913848E+00  1.51913848E+00  1.51913848E+00  1.51913848E+00  1.51913848E+00
  1.51913848E+00  4.89450978E+00 -9.22412826E+00 -2.38347684E+00 -2.38347684E+00
  1.51913848E+00  1.51913848E+00  1.51913848E+00  1.51913848E+00  1.51913848E+00
  1.51913848E+00  4.89450978E+00 -9.22412826E+00 -2.38347684E+00 -2.38347684E+00
  1.51913848E+00  1.51913848E+00  1.51913848E+00  1.51913848E+00  1.51913848E+00
  1.51913848E+00  4.89450978E+00 -9.22412826E+00 -2.38347684E+00 -2.38347684E+00
  1.51913848E+00  1.51913848E+00  1.51913848E+00  1.51913848E+00  1.51913848E+00
  1.51913848E+00  4.89450978E+00 -9.22412826E+00 -2.38347684E+00 -2.38347684E+00
  1.51913848E+00  1.51913848E+00  1.51913848E+00  1.51913848E+00  1.51913848E+00
  1.51913848E+00  4.89450978E+00 -9.22412826E+00 -2.38347684E+00 -2.38347684E+00
  1.51913848E+00  1.51913848E+00  1.51913848E+00  1.51913848E+00  1.51913848E+00
  1.51913848E+00  4.89450978E+00 -9.22412826E+00 -2.38347684E+00 -2.38347684E+00
  1.51913848E+00  1.51913848E+00  1.51913848E+00  1.51913848E+00  1.51913848E+00
  1.51913848E+00  4.89450978E+00 -9.22412826E+00 -2.38347684E+00 -2.38347684E+00
  1.51913848E+00  1.51913848E+00  1.51913848E+00  1.51913848E+00  1.51913848E+00
  1.51913848E+00  4.89450978E+00 -9.22412826E+00 -2.38347684E+00 -2.38347684E+00
  1.51913848E+00  1.51913848E+00  1.51913848E+00  1.51913848E+00  1.51913848E+00
  1.51913848E+00  4.89450978E+00 -9.22412826E+00 -2.38347684E+00 -2.38347684E+00
  1.51913848E+00  1.51913848E+00  1.51913848E+00  1.51913848E+00  1.51913848E+00
  1.51913848E+00  4.89450978E+00 -9.22412826E+00 -2.38347684E+00 -2.38347684E+00
  1.51913848E+00  1.51913848E+00  1.51913848E+00  1.51913848E+00  1.51913848E+00
  1.51913848E+00  4.89450978E+00 -9.22412826E+00 -2.38347684E+00 -2.38347684E+00
  1.51913848E+00  1.51913848E+00  1.51913848E+00  1.51913848E+00  1.51913848E+00
  1.51913848E+00  4.89450978E+00 -9.22412826E+00 -2.38347684E+00 -2.38347684E+00
  1.51913848E+00  1.51913848E+00  1.51913848E+00  1.51913848E+00  1.51913848E+00
  1.51913848E+00  4.89450978E+00 -9.22412826E+00 -2.38347684E+00 -2.38347684E+00
  1.51913848E+00  1.51913848E+00  1.51913848E+00  1.51913848E+00  1.51913848E+00
  1.51913848E+00  4.89450978E+00 -9.22412826E+00 -2.38347684E+00 -2.38347684E+00
  1.51913848E+00  1.51913848E+00  1.51913848E+00  1.51913848E+00  1.51913848E+00
  1.51913848E+00  4.89450978E+00 -9.22412826E+00 -2.38347684E+00 -2.38347684E+00
  1.51913848E+00  1.51913848E+00  1.51913848E+00  1.51913848E+00  1.51913848E+00
  1.51913848E+00  4.89450978E+00 -9.22412826E+00 -2.38347684E+00 -2.38347684E+00
  1.51913848E+00  1.51913848E+00  1.51913848E+00  1.51913848E+00  1.51913848E+00
  1.51913848E+00  4.89450978E+00 -9.22412826E+00 -2.38347684E+00 -2.38347684E+00
  1.51913848E+00  1.51913848E+00  1.51913848E+00  1.51913848E+00  1.51913848E+00
  1.51913848E+00  4.89450978E+00 -9.22412826E+00 -2.38347684E+00 -2.38347684E+00
  1.51913848E+00  1.51913848E+00  1.51913848E+00  1.51913848E+00  1.51913848E+00
  1.51913848E+00  4.89450978E+00 -9.22412826E+00 -2.38347684E+00 -2.38347684E+00
  1.51913848E+00  1.51913848E+00  1.51913848E+00  1.51913848E+00  1.51913848E+00
  1.51913848E+00  4.89450978E+00 -9.22412826E+00 -2.38347684E+00 -2.38347684E+00
  1.51913848E+00  1.51913848E+00  1.51913848E+00  1.51913848E+00  1.51913848E+00
  1.51913848E+00  4.89450978E+00 -9.22412826E+00 -2.38347684E+00 -2.38347684E+00
  1.51913848E+00  1.51913848E+00  1.51913848E+00  1.51913848E+00  1.51913848E+00
  1.51913848E+00  4.89450978E+00 -9.22412826E+00 -2.38347684E+00 -2.38347684E+00
  1.51913848E+00  1.51913848E+00  1.51913848E+00  1.51913848E+00  1.51913848E+00
  1.51913848E+00  4.89450978E+00 -9.22412826E+00 -2.38347684E+00 -2.38347684E+00
  1.51913848E+00  1.51913848E+00  1.51913848E+00  1.51913848E+00  1.51913848E+00
  1.51913848E+00  4.89450978E+00 -9.22412826E+00 -2.38347684E+00 -2.38347684E+00
  1.51913848E+00  1.51913848E+00  1.51913848E+00  1.51913848E+00  1.51913848E+00
  1.51913848E+00  4.89450978E+00 -9.22412826E+00 -2.38347684E+00 -2.38347684E+00
  1.51913848E+00  1.51913848E+00  1.51913848E+00  1.51913848E+00  1.51913848E+00
  1.51913848E+00  4.89450978E+00 -9.22412826E+00 -2.38347684E+00 -2.38347684E+00
  1.51913848E+00  1.51913848E+00  1.51913848E+00  1.51913848E+00  1.51913848E+00
  1.51913848E+00  4.89450978E+00 -9.22412826E+00 -2.38347684E+00 -2.38347684E+00
  1.51913848E+00  1.51913848E+00  1.51913848E+00  1.51913848E+00  1.51913848E+00
  1.51913848E+00  4.89450978E+00 -9.22412826E+00 -2.38347684E+00 -2.38347684E+00
  1.51913848E+00  1.51913848E+00  1.51913848E+00  1.51913848E+00  1.51913848E+00
  1.51913848E+00  4.89450978E+00 -9.22412826E+00 -2.38347684E+00 -2.38347684E+00
  1.51913848E+00  1.51913848E+00  1.51913848E+00  1.51913848E+00  1.51913848E+00
  1.51913848E+00  4.89450978E+00 -9.22412826E+00 -2.38347684E+00 -2.38347684E+00
  1.51913848E+00  1.51913848E+00  1.51913848E+00  1.51913848E+00  1.51913848E+00
  1.51913848E+00  4.89450978E+00 -9.22412826E+00 -2.38347684E+00 -2.38347684E+00
  1.51913848E+00  1.51913848E+00  1.51913848E+00  1.51913848E+00  1.51913848E+00
  1.51913848E+00  4.89450978E+00 -9.22412826E+00 -2.38347684E+00 -2.38347684E+00
  1.51913848E+00  1.51913848E+00  1.51913848E+00  1.51913848E+00  1.51913848E+00
  1.51913848E+00  4.89450978E+00 -9.22412826E+00 -2.38347684E+00 -2.38347684E+00
  1.51913848E+00  1.51913848E+00  1.51913848E+00  1.51913848E+00  1.51913848E+00
  1.51913848E+00  4.89450978E+00 -9.22412826E+00 -2.38347684E+00 -2.38347684E+00
  1.51913848E+00  1.51913848E+00  1.51913848E+00  1.51913848E+00  1.51913848E+00
  1.51913848E+00  4.89450978E+00 -9.22412826E+00 -2.38347684E+00 -2.38347684E+00
  1.51913848E+00  1.51913848E+00  1.51913848E+00  1.51913848E+00  1.51913848E+00
  1.51913848E+00  4.89450978E+00 -9.22412826E+00 -2.38347684E+00 -2.38347684E+00
  1.51913848E+00  1.51913848E+00  1.51913848E+00  1.51913848E+00  1.51913848E+00
  1.51913848E+00  4.89450978E+00 -9.22412826E+00 -2.38347684E+00 -2.38347684E+00
  1.51913848E+00  1.51913848E+00  1.51913848E+00  1.51913848E+00  1.51913848E+00
  1.51913848E+00  4.89450978E+00 -9.22412826E+00 -2.38347684E+00 -2.38347684E+00
  1.51913848E+00  1.51913848E+00  1.51913848E+00  1.51913848E+00  1.51913848E+00
  1.51913848E+00  4.89450978E+00 -9.22412826E+00 -2.38347684E+00 -2.38347684E+00
  1.51913848E+00  1.51913848E+00  1.51913848E+00  1.51913848E+00  1.51913848E+00
  1.51913848E+00  4.89450978E+00 -9.22412826E+00 -2.38347684E+00 -2.38347684E+00
  1.51913848E+00  1.51913848E+00  1.51913848E+00  1.51913848E+00  1.51913848E+00
  1.51913848E+00  4.89450978E+00 -9.22412826E+00 -2.38347684E+00 -2.38347684E+00
  1.51913848E+00  1.51913848E+00  1.51913848E+00  1.51913848E+00  1.51913848E+00
  1.51913848E+00  4.89450978E+00 -9.22412826E+00 -2.38347684E+00 -2.38347684E+00
  1.51913848E+00  1.51913848E+00  1.51913848E+00  1.51913848E+00  1.51913848E+00
  1.51913848E+00  4.89450978E+00 -9.22412826E+00 -2.38347684E+00 -2.38347684E+00
  1.51913848E+00  1.51913848E+00  1.51913848E+00  1.51913848E+00  1.51913848E+00
  1.51913848E+00  4.89450978E+00 -9.22412826E+00 -2.38347684E+00 -2.38347684E+00
  1.51913848E+00  1.51913848E+00  1.51913848E+00  1.51913848E+00  1.51913848E+00
  1.51913848E+00  4.89450978E+00 -9.22412826E+00 -2.38347684E+00 -2.38347684E+00
  1.51913848E+00  1.51913848E+00  1.51913848E+00  1.51913848E+00  1.51913848E+00
  1.51913848E+00  4.89450978E+00 -9.22412826E+00 -2.38347684E+00 -2.38347684E+00
  1.51913848E+00  1.51913848E+00  1.51913848E+00  1.51913848E+00  1.51913848E+00
  1.51913848E+00  4.89450978E+00 -9.22412826E+00 -2.38347684E+00 -2.38347684E+00
  1.51913848E+00  1.51913848E+00  1.51913848E+00  1.51913848E+00  1.51913848E+00
  1.51913848E+00  4.89450978E+00 -9.22412826E+00 -2.38347684E+00 -2.38347684E+00
  1.51913848E+00  1.51913848E+00  1.51913848E+00  1.51913848E+00  1.51913848E+00
  1.51913848E+00  4.89450978E+00 -9.22412826E+00 -2.38347684E+00 -2.38347684E+00
  1.51913848E+00  1.51913848E+00  1.51913848E+00  1.51913848E+00  1.51913848E+00
  1.51913848E+00  4.89450978E+00 -9.22412826E+00 -2.38347684E+00 -2.38347684E+00
  1.51913848E+00  1.51913848E+00  1.51913848E+00  1.51913848E+00  1.51913848E+00
  1.51913848E+00  4.89450978E+00 -9.22412826E+00 -2.38347684E+00 -2.38347684E+00
  1.51913848E+00  1.51913848E+00  1.51913848E+00  1.51913848E+00  1.51913848E+00
  1.51913848E+00  4.89450978E+00 -9.22412826E+00 -2.38347684E+00 -2.38347684E+00
  1.51913848E+00  1.51913848E+00  1.51913848E+00  1.51913848E+00  1.51913848E+00
  1.51913848E+00  4.89450978E+00 -9.22412826E+00 -2.38347684E+00 -2.38347684E+00
  1.51913848E+00  1.51913848E+00  1.51913848E+00  1.51913848E+00  1.51913848E+00
  1.51913848E+00  4.89450978E+00 -9.22412826E+00 -2.38347684E+00 -2.38347684E+00
  1.51913848E+00  1.51913848E+00  1.51913848E+00  1.51913848E+00  1.51913848E+00
  1.51913848E+00  4.89450978E+00 -9.22412826E+00 -2.38347684E+00 -2.38347684E+00
  1.51913848E+00  1.51913848E+00  1.51913848E+00  1.51913848E+00  1.51913848E+00
  1.51913848E+00  4.89450978E+00 -9.22412826E+00 -2.38347684E+00 -2.38347684E+00
  1.51913848E+00  1.51913848E+00  1.51913848E+00  1.51913848E+00  1.51913848E+00
  1.51913848E+00  4.89450978E+00 -9.22412826E+00 -2.38347684E+00 -2.38347684E+00
  1.51913848E+00  1.51913848E+00  1.51913848E+00  1.51913848E+00  1.51913848E+00
  1.51913848E+00  4.89450978E+00 -9.22412826E+00 -2.38347684E+00 -2.38347684E+00
  1.51913848E+00  1.51913848E+00  1.51913848E+00  1.51913848E+00  1.51913848E+00
  1.51913848E+00  4.89450978E+00 -9.22412826E+00 -2.38347684E+00 -2.38347684E+00
  1.51913848E+00  1.51913848E+00  1.51913848E+00  1.51913848E+00  1.51913848E+00
  1.51913848E+00  4.89450978E+00 -9.22412826E+00 -2.38347684E+00 -2.38347684E+00
  1.51913848E+00  1.51913848E+00  1.51913848E+00  1.51913848E+00  1.51913848E+00
  1.51913848E+00  4.89450978E+00 -9.22412826E+00 -2.38347684E+00 -2.38347684E+00
  1.51913848E+00  1.51913848E+00  1.51913848E+00  1.51913848E+00  1.51913848E+00
  1.51913848E+00  4.89450978E+00 -9.22412826E+00 -2.38347684E+00 -2.38347684E+00
  1.51913848E+00  1.51913848E+00  1.51913848E+00  1.51913848E+00  1.51913848E+00
  1.51913848E+00  4.89450978E+00 -9.22412826E+00 -2.38347684E+00 -2.38347684E+00
  1.51913848E+00  1.51913848E+00  1.51913848E+00  1.51913848E+00  1.51913848E+00
  1.51913848E+00  4.89450978E+00 -9.22412826E+00 -2.38347684E+00 -2.38347684E+00
  1.51913848E+00  1.51913848E+00  1.51913848E+00  1.51913848E+00  1.51913848E+00
  1.51913848E+00  4.89450978E+00 -9.22412826E+00 -2.38347684E+00 -2.38347684E+00
  1.51913848E+00  1.51913848E+00  1.51913848E+00  1.51913848E+00  1.51913848E+00
  1.51913848E+00  4.89450978E+00 -9.22412826E+00 -2.38347684E+00 -2.38347684E+00
  1.51913848E+00  1.51913848E+00  1.51913848E+00  1.51913848E+00  1.51913848E+00
  1.51913848E+00  4.89450978E+00 -9.22412826E+00 -2.38347684E+00 -2.38347684E+00
  1.51913848E+00  1.51913848E+00  1.51913848E+00  1.51913848E+00  1.51913848E+00
  1.51913848E+00  4.89450978E+00 -9.22412826E+00 -2.38347684E+00 -2.38347684E+00
  1.51913848E+00  1.51913848E+00  1.51913848E+00  1.51913848E+00  1.51913848E+00
  1.51913848E+00  4.89450978E+00 -9.22412826E+00 -2.38347684E+00 -2.38347684E+00
  1.51913848E+00  1.51913848E+00  1.51913848E+00  1.51913848E+00  1.51913848E+00
  1.51913848E+00  4.89450978E+00 -9.22412826E+00 -2.38347684E+00 -2.38347684E+00
  1.51913848E+00  1.51913848E+00  1.51913848E+00  1.51913848E+00  1.51913848E+00
  1.51913848E+00  4.89450978E+00 -9.22412826E+00 -2.38347684E+00 -2.38347684E+00
  1.51913848E+00  1.51913848E+00  1.51913848E+00  1.51913848E+00  1.51913848E+00
  1.51913848E+00  4.89450978E+00 -9.22412826E+00 -2.38347684E+00 -2.38347684E+00
  1.51913848E+00  1.51913848E+00  1.51913848E+00  1.51913848E+00  1.51913848E+00
  1.51913848E+00  4.89450978E+00 -9.22412826E+00 -2.38347684E+00 -2.38347684E+00
  1.51913848E+00  1.51913848E+00  1.51913848E+00  1.51913848E+00  1.51913848E+00
  1.51913848E+00  4.89450978E+00 -9.22412826E+00 -2.38347684E+00 -2.38347684E+00
  1.51913848E+00  1.51913848E+00  1.51913848E+00  1.51913848E+00  1.51913848E+00
  1.51913848E+00  4.89450978E+00 -9.22412826E+00 -2.38347684E+00 -2.38347684E+00
  1.51913848E+00  1.51913848E+00  1.51913848E+00  1.51913848E+00  1.51913848E+00
  1.51913848E+00  4.89450978E+00 -9.22412826E+00 -2.38347684E+00 -2.38347684E+00
  1.51913848E+00  1.51913848E+00  1.51913848E+00  1.51913848E+00  1.51913848E+00
  1.51913848E+00  4.89450978E+00 -9.22412826E+00 -2.38347684E+00 -2.38347684E+00
  1.51913848E+00  1.51913848E+00  1.51913848E+00  1.51913848E+00  1.51913848E+00
  1.51913848E+00  4.89450978E+00 -9.22412826E+00 -2.38347684E+00 -2.38347684E+00
  1.51913848E+00  1.51913848E+00  1.51913848E+00  1.51913848E+00  1.51913848E+00
  1.51913848E+00  4.89450978E+00 -9.22412826E+00 -2.38347684E+00 -2.38347684E+00
  1.51913848E+00  1.51913848E+00  1.51913848E+00  1.51913848E+00  1.51913848E+00
  1.51913848E+00  4.89450978E+00 -9.22412826E+00 -2.38347684E+00 -2.38347684E+00
  1.51913848E+00  1.51913848E+00  1.51913848E+00  1.51913848E+00  1.51913848E+00
  1.51913848E+00  4.89450978E+00 -9.22412826E+00 -2.38347684E+00 -2.38347684E+00
  1.51913848E+00  1.51913848E+00  1.51913848E+00  1.51913848E+00  1.51913848E+00
  1.51913848E+00  4.89450978E+00 -9.22412826E+00 -2.38347684E+00 -2.38347684E+00
  1.51913848E+00  1.51913848E+00  1.51913848E+00  1.51913848E+00  1.51913848E+00
  1.51913848E+00  4.89450978E+00 -9.22412826E+00 -2.38347684E+00 -2.38347684E+00
  1.51913848E+00  1.51913848E+00  1.51913848E+00  1.51913848E+00  1.51913848E+00
  1.51913848E+00  4.89450978E+00 -9.22412826E+00 -2.38347684E+00 -2.38347684E+00
  1.51913848E+00  1.51913848E+00  1.51913848E+00  1.51913848E+00  1.51913848E+00
  1.51913848E+00  4.89450978E+00 -9.22412826E+00 -2.38347684E+00 -2.38347684E+00
  1.51913848E+00  1.51913848E+00  1.51913848E+00  1.51913848E+00  1.51913848E+00
  1.51913848E+00  4.89450978E+00 -9.22412826E+00 -2.38347684E+00 -2.38347684E+00
  1.51913848E+00  1.51913848E+00  1.51913848E+00  1.51913848E+00  1.51913848E+00
  1.51913848E+00  4.89450978E+00 -9.22412826E+00 -2.38347684E+00 -2.38347684E+00
  1.51913848E+00  1.51913848E+00  1.51913848E+00  1.51913848E+00  1.51913848E+00
  1.51913848E+00  4.89450978E+00 -9.22412826E+00 -2.38347684E+00 -2.38347684E+00
  1.51913848E+00  1.51913848E+00  1.51913848E+00  1.51913848E+00  1.51913848E+00
  1.51913848E+00  4.89450978E+00 -9.22412826E+00 -2.38347684E+00 -2.38347684E+00
  1.51913848E+00  1.51913848E+00  1.51913848E+00  1.51913848E+00  1.51913848E+00
  1.51913848E+00  4.89450978E+00 -9.22412826E+00 -2.38347684E+00 -2.38347684E+00
  1.51913848E+00  1.51913848E+00  1.51913848E+00  1.51913848E+00  1.51913848E+00
  1.51913848E+00  4.89450978E+00 -9.22412826E+00 -2.38347684E+00 -2.38347684E+00
  1.51913848E+00  1.51913848E+00  1.51913848E+00  1.51913848E+00  1.51913848E+00
  1.51913848E+00  4.89450978E+00 -9.22412826E+00 -2.38347684E+00 -2.38347684E+00
  1.51913848E+00  1.51913848E+00  1.51913848E+00  1.51913848E+00  1.51913848E+00
  1.51913848E+00  4.89450978E+00 -9.22412826E+00 -2.38347684E+00 -2.38347684E+00
  1.51913848E+00  1.51913848E+00  1.51913848E+00  1.51913848E+00  1.51913848E+00
  1.51913848E+00  4.89450978E+00 -9.22412826E+00 -2.38347684E+00 -2.38347684E+00
  1.51913848E+00  1.51913848E+00  1.51913848E+00  1.51913848E+00  1.51913848E+00
  1.51913848E+00  4.89450978E+00 -9.22412826E+00 -2.38347684E+00 -2.38347684E+00
  1.51913848E+00  1.51913848E+00  1.51913848E+00  1.51913848E+00  1.51913848E+00
  1.51913848E+00  4.89450978E+00 -9.22412826E+00 -2.38347684E+00 -2.38347684E+00
  1.51913848E+00  1.51913848E+00  1.51913848E+00  1.51913848E+00  1.51913848E+00
  1.51913848E+00  4.89450978E+00 -9.22412826E+00 -2.38347684E+00 -2.38347684E+00
  1.51913848E+00  1.51913848E+00  1.51913848E+00  1.51913848E+00  1.51913848E+00
  1.51913848E+00  4.89450978E+00 -9.22412826E+00 -2.38347684E+00 -2.38347684E+00
  1.51913848E+00  1.51913848E+00  1.51913848E+00  1.51913848E+00  1.51913848E+00
  1.51913848E+00  4.89450978E+00 -9.22412826E+00 -2.38347684E+00 -2.38347684E+00
  1.51913848E+00  1.51913848E+00  1.51913848E+00  1.51913848E+00  1.51913848E+00
  1.51913848E+00  4.89450978E+00 -9.22412826E+00 -2.38347684E+00 -2.38347684E+00
  1.51913848E+00  1.51913848E+00  1.51913848E+00  1.51913848E+00  1.51913848E+00
  1.51913848E+00  4.89450978E+00 -9.22412826E+00 -2.38347684E+00 -2.38347684E+00
  1.51913848E+00  1.51913848E+00  1.51913848E+00  1.51913848E+00  1.51913848E+00
  1.51913848E+00  4.89450978E+00 -9.22412826E+00 -2.38347684E+00 -2.38347684E+00
  1.51913848E+00  1.51913848E+00  1.51913848E+00  1.51913848E+00  1.51913848E+00
  1.51913848E+00  4.89450978E+00 -9.22412826E+00 -2.38347684E+00 -2.38347684E+00
  1.51913848E+00  1.51913848E+00  1.51913848E+00  1.51913848E+00  1.51913848E+00
  1.51913848E+00  4.89450978E+00 -9.22412826E+00 -2.38347684E+00 -2.38347684E+00
  1.51913848E+00  1.51913848E+00  1.51913848E+00  1.51913848E+00  1.51913848E+00
  1.51913848E+00  4.89450978E+00 -9.22412826E+00 -2.38347684E+00 -2.38347684E+00
  1.51913848E+00  1.51913848E+00  1.51913848E+00  1.51913848E+00  1.51913848E+00
  1.51913848E+00  4.89450978E+00 -9.22412826E+00 -2.38347684E+00 -2.38347684E+00
  1.51913848E+00  1.51913848E+00  1.51913848E+00  1.51913848E+00  1.51913848E+00
  1.51913848E+00  4.89450978E+00 -9.22412826E+00 -2.38347684E+00 -2.38347684E+00
  1.51913848E+00  1.51913848E+00  1.51913848E+00  1.51913848E+00  1.51913848E+00
  1.51913848E+00  4.89450978E+00 -9.22412826E+00 -2.38347684E+00 -2.38347684E+00
  1.51913848E+00  1.51913848E+00  1.51913848E+00  1.51913848E+00  1.51913848E+00
  1.51913848E+00  4.89450978E+00 -9.22412826E+00 -2.38347684E+00 -2.38347684E+00
  1.51913848E+00  1.51913848E+00  1.51913848E+00  1.51913848E+00  1.51913848E+00
  1.51913848E+00  4.89450978E+00 -9.22412826E+00 -2.38347684E+00 -2.38347684E+00
  1.51913848E+00  1.51913848E+00  1.51913848E+00  1.51913848E+00  1.51913848E+00
  1.51913848E+00  4.89450978E+00 -9.22412826E+00 -2.38347684E+00 -2.38347684E+00
  1.51913848E+00  1.51913848E+00  1.51913848E+00  1.51913848E+00  1.51913848E+00
  1.51913848E+00  4.89450978E+00 -9.22412826E+00 -2.38347684E+00 -2.38347684E+00
  1.51913848E+00  1.51913848E+00  1.51913848E+00  1.51913848E+00  1.51913848E+00
  1.51913848E+00  4.89450978E+00 -9.22412826E+00 -2.38347684E+00 -2.38347684E+00
  1.51913848E+00  1.51913848E+00  1.51913848E+00  1.51913848E+00  1.51913848E+00
  1.51913848E+00  4.89450978E+00 -9.22412826E+00 -2.38347684E+00 -2.38347684E+00
  1.51913848E+00  1.51913848E+00  1.51913848E+00  1.51913848E+00  1.51913848E+00
  1.51913848E+00  4.89450978E+00 -9.22412826E+00 -2.38347684E+00 -2.38347684E+00
  1.51913848E+00  1.51913848E+00  1.51913848E+00  1.51913848E+00  1.51913848E+00
  1.51913848E+00  4.89450978E+00 -9.22412826E+00 -2.38347684E+00 -2.38347684E+00
  1.51913848E+00  1.51913848E+00  1.51913848E+00  1.51913848E+00  1.51913848E+00
  1.51913848E+00  4.89450978E+00 -9.22412826E+00 -2.38347684E+00 -2.38347684E+00
  1.51913848E+00  1.51913848E+00  1.51913848E+00  1.51913848E+00  1.51913848E+00
  1.51913848E+00  4.89450978E+00 -9.22412826E+00 -2.38347684E+00 -2.38347684E+00
  1.51913848E+00  1.51913848E+00  1.51913848E+00  1.51913848E+00  1.51913848E+00
  1.51913848E+00  4.89450978E+00 -9.22412826E+00 -2.38347684E+00 -2.38347684E+00
  1.51913848E+00  1.51913848E+00  1.51913848E+00  1.51913848E+00  1.51913848E+00
  1.51913848E+00  4.89450978E+00 -9.22412826E+00 -2.38347684E+00 -2.38347684E+00
  1.51913848E+00  1.51913848E+00  1.51913848E+00  1.51913848E+00  1.51913848E+00
  1.51913848E+00  4.89450978E+00 -9.22412826E+00 -2.38347684E+00 -2.38347684E+00
  1.51913848E+00  1.51913848E+00  1.51913848E+00  1.51913848E+00  1.51913848E+00
  1.51913848E+00  4.89450978E+00 -9.22412826E+00 -2.38347684E+00 -2.38347684E+00
  1.51913848E+00  1.51913848E+00  1.51913848E+00  1.51913848E+00  1.51913848E+00
  1.51913848E+00  4.89450978E+00 -9.22412826E+00 -2.38347684E+00 -2.38347684E+00
  1.51913848E+00  1.51913848E+00  1.51913848E+00  1.51913848E+00  1.51913848E+00
  1.51913848E+00  4.89450978E+00 -9.22412826E+00 -2.38347684E+00 -2.38347684E+00
  1.51913848E+00  1.51913848E+00  1.51913848E+00  1.51913848E+00  1.51913848E+00
  1.51913848E+00  4.89450978E+00 -9.22412826E+00 -2.38347684E+00 -2.38347684E+00
  1.51913848E+00  1.51913848E+00  1.51913848E+00  1.51913848E+00  1.51913848E+00
  1.51913848E+00  4.89450978E+00 -9.22412826E+00 -2.38347684E+00 -2.38347684E+00
  1.51913848E+00  1.51913848E+00  1.51913848E+00  1.51913848E+00  1.51913848E+00
  1.51913848E+00  4.89450978E+00 -9.22412826E+00 -2.38347684E+00 -2.38347684E+00
  1.51913848E+00  1.51913848E+00  1.51913848E+00  1.51913848E+00  1.51913848E+00
  1.51913848E+00  4.89450978E+00 -9.22412826E+00 -2.38347684E+00 -2.38347684E+00
  1.51913848E+00  1.51913848E+00  1.51913848E+00  1.51913848E+00  1.51913848E+00
  1.51913848E+00  4.89450978E+00 -9.22412826E+00 -2.38347684E+00 -2.38347684E+00
  1.51913848E+00  1.51913848E+00  1.51913848E+00  1.51913848E+00  1.51913848E+00
  1.51913848E+00  4.89450978E+00 -9.22412826E+00 -2.38347684E+00 -2.38347684E+00
  1.51913848E+00  1.51913848E+00  1.51913848E+00  1.51913848E+00  1.51913848E+00
  1.51913848E+00  4.89450978E+00 -9.22412826E+00 -2.38347684E+00 -2.38347684E+00
  1.51913848E+00  1.51913848E+00  1.51913848E+00  1.51913848E+00  1.51913848E+00
  1.51913848E+00  4.89450978E+00 -9.22412826E+00 -2.38347684E+00 -2.38347684E+00
  1.51913848E+00  1.51913848E+00  1.51913848E+00  1.51913848E+00  1.51913848E+00
  1.51913848E+00  4.89450978E+00 -9.22412826E+00 -2.38347684E+00 -2.38347684E+00
  1.51913848E+00  1.51913848E+00  1.51913848E+00  1.51913848E+00  1.51913848E+00
  1.51913848E+00  4.89450978E+00 -9.22412826E+00 -2.38347684E+00 -2.38347684E+00
  1.51913848E+00  1.51913848E+00  1.51913848E+00  1.51913848E+00  1.51913848E+00
  1.51913848E+00  4.89450978E+00 -9.22412826E+00 -2.38347684E+00 -2.38347684E+00
  1.51913848E+00  1.51913848E+00  1.51913848E+00  1.51913848E+00  1.51913848E+00
  1.51913848E+00  4.89450978E+00 -9.22412826E+00 -2.38347684E+00 -2.38347684E+00
  1.51913848E+00  1.51913848E+00  1.51913848E+00  1.51913848E+00  1.51913848E+00
  1.51913848E+00  4.89450978E+00 -9.22412826E+00 -2.38347684E+00 -2.38347684E+00
  1.51913848E+00  1.51913848E+00  1.51913848E+00  1.51913848E+00  1.51913848E+00
  1.51913848E+00  4.89450978E+00 -9.22412826E+00 -2.38347684E+00 -2.38347684E+00
  1.51913848E+00  1.51913848E+00  1.51913848E+00  1.51913848E+00  1.51913848E+00
  1.51913848E+00  4.89450978E+00 -9.22412826E+00 -2.38347684E+00 -2.38347684E+00
  1.51913848E+00  1.51913848E+00  1.51913848E+00  1.51913848E+00  1.51913848E+00
  1.51913848E+00  4.89450978E+00 -9.22412826E+00 -2.38347684E+00 -2.38347684E+00
  1.51913848E+00  1.51913848E+00  1.51913848E+00  1.51913848E+00  1.51913848E+00
  1.51913848E+00  4.89450978E+00 -9.22412826E+00 -2.38347684E+00 -2.38347684E+00
  1.51913848E+00  1.51913848E+00  1.51913848E+00  1.51913848E+00  1.51913848E+00
  1.51913848E+00  4.89450978E+00 -9.22412826E+00 -2.38347684E+00 -2.38347684E+00
  1.51913848E+00  1.51913848E+00  1.51913848E+00  1.51913848E+00  1.51913848E+00
  1.51913848E+00  4.89450978E+00 -9.22412826E+00 -2.38347684E+00 -2.38347684E+00
  1.51913848E+00  1.51913848E+00  1.51913848E+00  1.51913848E+00  1.51913848E+00
  1.51913848E+00  4.89450978E+00 -9.22412826E+00 -2.38347684E+00 -2.38347684E+00
  1.51913848E+00  1.51913848E+00  1.51913848E+00  1.51913848E+00  1.51913848E+00
  1.51913848E+00  4.89450978E+00 -9.22412826E+00 -2.38347684E+00 -2.38347684E+00
  1.51913848E+00  1.51913848E+00  1.51913848E+00  1.51913848E+00  1.51913848E+00
  1.51913848E+00  4.89450978E+00 -9.22412826E+00 -2.38347684E+00 -2.38347684E+00
  1.51913848E+00  1.51913848E+00  1.51913848E+00  1.51913848E+00  1.51913848E+00
  1.51913848E+00  4.89450978E+00 -9.22412826E+00 -2.38347684E+00 -2.38347684E+00
  1.51913848E+00  1.51913848E+00  1.51913848E+00  1.51913848E+00  1.51913848E+00
  1.51913848E+00  4.89450978E+00 -9.22412826E+00 -2.38347684E+00 -2.38347684E+00
  1.51913848E+00  1.51913848E+00  1.51913848E+00  1.51913848E+00  1.51913848E+00
  1.51913848E+00  4.89450978E+00 -9.22412826E+00 -2.38347684E+00 -2.38347684E+00
  1.51913848E+00  1.51913848E+00  1.51913848E+00  1.51913848E+00  1.51913848E+00
  1.51913848E+00  4.89450978E+00 -9.22412826E+00 -2.38347684E+00 -2.38347684E+00
  1.51913848E+00  1.51913848E+00  1.51913848E+00  1.51913848E+00  1.51913848E+00
  1.51913848E+00  4.89450978E+00 -9.22412826E+00 -2.38347684E+00 -2.38347684E+00
  1.51913848E+00  1.51913848E+00  1.51913848E+00  1.51913848E+00  1.51913848E+00
  1.51913848E+00  4.89450978E+00 -9.22412826E+00 -2.38347684E+00 -2.38347684E+00
  1.51913848E+00  1.51913848E+00  1.51913848E+00  1.51913848E+00  1.51913848E+00
  1.51913848E+00  4.89450978E+00 -9.22412826E+00 -2.38347684E+00 -2.38347684E+00
  1.51913848E+00  1.51913848E+00  1.51913848E+00  1.51913848E+00  1.51913848E+00
  1.51913848E+00  4.89450978E+00 -9.22412826E+00 -2.38347684E+00 -2.38347684E+00
  1.51913848E+00  1.51913848E+00  1.51913848E+00  1.51913848E+00  1.51913848E+00
  1.51913848E+00  4.89450978E+00 -9.22412826E+00 -2.38347684E+00 -2.38347684E+00
  1.51913848E+00  1.51913848E+00  1.51913848E+00  1.51913848E+00  1.51913848E+00
  1.51913848E+00  4.89450978E+00 -9.22412826E+00 -2.38347684E+00 -2.38347684E+00
  1.51913848E+00  1.51913848E+00  1.51913848E+00  1.51913848E+00  1.51913848E+00
  1.51913848E+00  4.89450978E+00 -9.22412826E+00 -2.38347684E+00 -2.38347684E+00
  1.51913848E+00  1.51913848E+00  1.51913848E+00  1.51913848E+00  1.51913848E+00
  1.51913848E+00  4.89450978E+00 -9.22412826E+00 -2.38347684E+00 -2.38347684E+00
  1.51913848E+00  1.51913848E+00  1.51913848E+00  1.51913848E+00  1.51913848E+00
  1.51913848E+00  4.89450978E+00 -9.22412826E+00 -2.38347684E+00 -2.38347684E+00
  1.51913848E+00  1.51913848E+00  1.51913848E+00  1.51913848E+00  1.51913848E+00
  1.51913848E+00  4.89450978E+00 -9.22412826E+00 -2.38347684E+00 -2.38347684E+00
  1.51913848E+00  1.51913848E+00  1.51913848E+00  1.51913848E+00  1.51913848E+00
  1.51913848E+00  4.89450978E+00 -9.22412826E+00 -2.38347684E+00 -2.38347684E+00
  1.51913848E+00  1.51913848E+00  1.51913848E+00  1.51913848E+00  1.51913848E+00
  1.51913848E+00  4.89450978E+00 -9.22412826E+00 -2.38347684E+00 -2.38347684E+00
  1.51913848E+00  1.51913848E+00  1.51913848E+00  1.51913848E+00  1.51913848E+00
  1.51913848E+00  4.89450978E+00 -9.22412826E+00 -2.38347684E+00 -2.38347684E+00
  1.51913848E+00  1.51913848E+00  1.51913848E+00  1.51913848E+00  1.51913848E+00
  1.51913848E+00  4.89450978E+00 -9.22412826E+00 -2.38347684E+00 -2.38347684E+00
  1.51913848E+00  1.51913848E+00  1.51913848E+00  1.51913848E+00  1.51913848E+00
  1.51913848E+00  4.89450978E+00 -9.22412826E+00 -2.38347684E+00 -2.38347684E+00
  1.51913848E+00  1.51913848E+00  1.51913848E+00  1.51913848E+00  1.51913848E+00
  1.51913848E+00  4.89450978E+00 -9.22412826E+00 -2.38347684E+00 -2.38347684E+00
  1.51913848E+00  1.51913848E+00  1.51913848E+00  1.51913848E+00  1.51913848E+00
  1.51913848E+00  4.89450978E+00 -9.22412826E+00 -2.38347684E+00 -2.38347684E+00
  1.51913848E+00  1.51913848E+00  1.51913848E+00  1.51913848E+00  1.51913848E+00
  1.51913848E+00  4.89450978E+00 -9.22412826E+00 -2.38347684E+00 -2.38347684E+00
  1.51913848E+00  1.51913848E+00  1.51913848E+00  1.51913848E+00  1.51913848E+00
  1.51913848E+00  4.89450978E+00 -9.22412826E+00 -2.38347684E+00 -2.38347684E+00
  1.51913848E+00  1.51913848E+00  1.51913848E+00  1.51913848E+00  1.51913848E+00
  1.51913848E+00  4.89450978E+00 -9.22412826E+00 -2.38347684E+00 -2.38347684E+00
  1.51913848E+00  1.51913848E+00  1.51913848E+00  1.51913848E+00  1.51913848E+00
  1.51913848E+00  4.89450978E+00 -9.22412826E+00 -2.38347684E+00 -2.38347684E+00
  1.51913848E+00  1.51913848E+00  1.51913848E+00  1.51913848E+00  1.51913848E+00
  1.51913848E+00  4.89450978E+00 -9.22412826E+00 -2.38347684E+00 -2.38347684E+00
  1.51913848E+00  1.51913848E+00  1.51913848E+00  1.51913848E+00  1.51913848E+00
  1.51913848E+00  4.89450978E+00 -9.22412826E+00 -2.38347684E+00 -2.38347684E+00
  1.51913848E+00  1.51913848E+00  1.51913848E+00  1.51913848E+00  1.51913848E+00
  1.51913848E+00  4.89450978E+00 -9.22412826E+00 -2.38347684E+00 -2.38347684E+00
  1.51913848E+00  1.51913848E+00  1.51913848E+00  1.51913848E+00  1.51913848E+00
  1.51913848E+00  4.89450978E+00 -9.22412826E+00 -2.38347684E+00 -2.38347684E+00
  1.51913848E+00  1.51913848E+00  1.51913848E+00  1.51913848E+00  1.51913848E+00
  1.51913848E+00  4.89450978E+00 -9.22412826E+00 -2.38347684E+00 -2.38347684E+00
  1.51913848E+00  1.51913848E+00  1.51913848E+00  1.51913848E+00  1.51913848E+00
  1.51913848E+00  4.89450978E+00 -9.22412826E+00 -2.38347684E+00 -2.38347684E+00
  1.51913848E+00  1.51913848E+00  1.51913848E+00  1.51913848E+00  1.51913848E+00
  1.51913848E+00  4.89450978E+00 -9.22412826E+00 -2.38347684E+00 -2.38347684E+00
  1.51913848E+00  1.51913848E+00  1.51913848E+00  1.51913848E+00  1.51913848E+00
  1.51913848E+00  4.89450978E+00 -9.22412826E+00 -2.38347684E+00 -2.38347684E+00
  1.51913848E+00  1.51913848E+00  1.51913848E+00  1.51913848E+00  1.51913848E+00
  1.51913848E+00  4.89450978E+00 -9.22412826E+00 -2.38347684E+00 -2.38347684E+00
  1.51913848E+00  1.51913848E+00  1.51913848E+00  1.51913848E+00  1.51913848E+00
  1.51913848E+00  4.89450978E+00 -9.22412826E+00 -2.38347684E+00 -2.38347684E+00
  1.51913848E+00  1.51913848E+00  1.51913848E+00  1.51913848E+00  1.51913848E+00
  1.51913848E+00  4.89450978E+00 -9.22412826E+00 -2.38347684E+00 -2.38347684E+00
  1.51913848E+00  1.51913848E+00  1.51913848E+00  1.51913848E+00  1.51913848E+00
  1.51913848E+00  4.89450978E+00 -9.22412826E+00 -2.38347684E+00 -2.38347684E+00
  1.51913848E+00  1.51913848E+00  1.51913848E+00  1.51913848E+00  1.51913848E+00
  1.51913848E+00  4.89450978E+00 -9.22412826E+00 -2.38347684E+00 -2.38347684E+00
  1.51913848E+00  1.51913848E+00  1.51913848E+00  1.51913848E+00  1.51913848E+00
  1.51913848E+00  4.89450978E+00 -9.22412826E+00 -2.38347684E+00 -2.38347684E+00
  1.51913848E+00  1.51913848E+00  1.51913848E+00  1.51913848E+00  1.51913848E+00
  1.51913848E+00  4.89450978E+00 -9.22412826E+00 -2.38347684E+00 -2.38347684E+00
  1.51913848E+00  1.51913848E+00  1.51913848E+00  1.51913848E+00  1.51913848E+00
  1.51913848E+00  4.89450978E+00 -9.22412826E+00 -2.38347684E+00 -2.38347684E+00
  1.51913848E+00  1.51913848E+00  1.51913848E+00  1.51913848E+00  1.51913848E+00
  1.51913848E+00  4.89450978E+00 -9.22412826E+00 -2.38347684E+00 -2.38347684E+00
  1.51913848E+00  1.51913848E+00  1.51913848E+00  1.51913848E+00  1.51913848E+00
  1.51913848E+00  4.89450978E+00 -9.22412826E+00 -2.38347684E+00 -2.38347684E+00
  1.51913848E+00  1.51913848E+00  1.51913848E+00  1.51913848E+00  1.51913848E+00
  1.51913848E+00  4.89450978E+00 -9.22412826E+00 -2.38347684E+00 -2.38347684E+00
  1.51913848E+00  1.51913848E+00  1.51913848E+00  1.51913848E+00  1.51913848E+00
  1.51913848E+00  4.89450978E+00 -9.22412826E+00 -2.38347684E+00 -2.38347684E+00
  1.51913848E+00  1.51913848E+00  1.51913848E+00  1.51913848E+00  1.51913848E+00
  1.51913848E+00  4.89450978E+00 -9.22412826E+00 -2.38347684E+00 -2.38347684E+00
  1.51913848E+00  1.51913848E+00  1.51913848E+00  1.51913848E+00  1.51913848E+00
  1.51913848E+00  4.89450978E+00 -9.22412826E+00 -2.38347684E+00 -2.38347684E+00
  1.51913848E+00  1.51913848E+00  1.51913848E+00  1.51913848E+00  1.51913848E+00
  1.51913848E+00  4.89450978E+00 -9.22412826E+00 -2.38347684E+00 -2.38347684E+00
  1.51913848E+00  1.51913848E+00  1.51913848E+00  1.51913848E+00  1.51913848E+00
  1.51913848E+00  4.89450978E+00 -9.22412826E+00 -2.38347684E+00 -2.38347684E+00
  1.51913848E+00  1.51913848E+00  1.51913848E+00  1.51913848E+00  1.51913848E+00
  1.51913848E+00  4.89450978E+00 -9.22412826E+00 -2.38347684E+00 -2.38347684E+00
  1.51913848E+00  1.51913848E+00  1.51913848E+00  1.51913848E+00  1.51913848E+00
  1.51913848E+00  4.89450978E+00 -9.22412826E+00 -2.38347684E+00 -2.38347684E+00
  1.51913848E+00  1.51913848E+00  1.51913848E+00  1.51913848E+00  1.51913848E+00
  1.51913848E+00  4.89450978E+00 -9.22412826E+00 -2.38347684E+00 -2.38347684E+00
  1.51913848E+00  1.51913848E+00  1.51913848E+00  1.51913848E+00  1.51913848E+00
  1.51913848E+00  4.89450978E+00 -9.22412826E+00 -2.38347684E+00 -2.38347684E+00
  1.51913848E+00  1.51913848E+00  1.51913848E+00  1.51913848E+00  1.51913848E+00
  1.51913848E+00  4.89450978E+00 -9.22412826E+00 -2.38347684E+00 -2.38347684E+00
  1.51913848E+00  1.51913848E+00  1.51913848E+00  1.51913848E+00  1.51913848E+00
  1.51913848E+00  4.89450978E+00 -9.22412826E+00 -2.38347684E+00 -2.38347684E+00
  1.51913848E+00  1.51913848E+00  1.51913848E+00  1.51913848E+00  1.51913848E+00
  1.51913848E+00  4.89450978E+00 -9.22412826E+00 -2.38347684E+00 -2.38347684E+00
  1.51913848E+00  1.51913848E+00  1.51913848E+00  1.51913848E+00  1.51913848E+00
  1.51913848E+00  4.89450978E+00 -9.22412826E+00 -2.38347684E+00 -2.38347684E+00
  1.51913848E+00  1.51913848E+00  1.51913848E+00  1.51913848E+00  1.51913848E+00
  1.51913848E+00  4.89450978E+00 -9.22412826E+00 -2.38347684E+00 -2.38347684E+00
  1.51913848E+00  1.51913848E+00  1.51913848E+00  1.51913848E+00  1.51913848E+00
  1.51913848E+00  4.89450978E+00 -9.22412826E+00 -2.38347684E+00 -2.38347684E+00
  1.51913848E+00  1.51913848E+00  1.51913848E+00  1.51913848E+00  1.51913848E+00
  1.51913848E+00  4.89450978E+00 -9.22412826E+00 -2.38347684E+00 -2.38347684E+00
  1.51913848E+00  1.51913848E+00  1.51913848E+00  1.51913848E+00  1.51913848E+00
  1.51913848E+00  4.89450978E+00 -9.22412826E+00 -2.38347684E+00 -2.38347684E+00
  1.51913848E+00  1.51913848E+00  1.51913848E+00  1.51913848E+00  1.51913848E+00
  1.51913848E+00  4.89450978E+00 -9.22412826E+00 -2.38347684E+00 -2.38347684E+00
  1.51913848E+00  1.51913848E+00  1.51913848E+00  1.51913848E+00  1.51913848E+00
  1.51913848E+00  4.89450978E+00 -9.22412826E+00 -2.38347684E+00 -2.38347684E+00
  1.51913848E+00  1.51913848E+00  1.51913848E+00  1.51913848E+00  1.51913848E+00
  1.51913848E+00  4.89450978E+00 -9.22412826E+00 -2.38347684E+00 -2.38347684E+00
  1.51913848E+00  1.51913848E+00  1.51913848E+00  1.51913848E+00  1.51913848E+00
  1.51913848E+00  4.89450978E+00 -9.22412826E+00 -2.38347684E+00 -2.38347684E+00
  1.51913848E+00  1.51913848E+00  1.51913848E+00  1.51913848E+00  1.51913848E+00
  1.51913848E+00  4.89450978E+00 -9.22412826E+00 -2.38347684E+00 -2.38347684E+00
  1.51913848E+00  1.51913848E+00  1.51913848E+00  1.51913848E+00  1.51913848E+00
  1.51913848E+00  4.89450978E+00 -9.22412826E+00 -2.38347684E+00 -2.38347684E+00
  1.51913848E+00  1.51913848E+00  1.51913848E+00  1.51913848E+00  1.51913848E+00
  1.51913848E+00  4.89450978E+00 -9.22412826E+00 -2.38347684E+00 -2.38347684E+00
  1.51913848E+00  1.51913848E+00  1.51913848E+00  1.51913848E+00  1.51913848E+00
  1.51913848E+00  4.89450978E+00 -9.22412826E+00 -2.38347684E+00 -2.38347684E+00
  1.51913848E+00  1.51913848E+00  1.51913848E+00  1.51913848E+00  1.51913848E+00
  1.51913848E+00  4.89450978E+00 -9.22412826E+00 -2.38347684E+00 -2.38347684E+00
  1.51913848E+00  1.51913848E+00  1.51913848E+00  1.51913848E+00  1.51913848E+00
  1.51913848E+00  4.89450978E+00 -9.22412826E+00 -2.38347684E+00 -2.38347684E+00
  1.51913848E+00  1.51913848E+00  1.51913848E+00  1.51913848E+00  1.51913848E+00
  1.51913848E+00  4.89450978E+00 -9.22412826E+00 -2.38347684E+00 -2.38347684E+00
  1.51913848E+00  1.51913848E+00  1.51913848E+00  1.51913848E+00  1.51913848E+00
  1.51913848E+00  4.89450978E+00 -9.22412826E+00 -2.38347684E+00 -2.38347684E+00
  1.51913848E+00  1.51913848E+00  1.51913848E+00  1.51913848E+00  1.51913848E+00
  1.51913848E+00  4.89450978E+00 -9.22412826E+00 -2.38347684E+00 -2.38347684E+00
  1.51913848E+00  1.51913848E+00  1.51913848E+00  1.51913848E+00  1.51913848E+00
  1.51913848E+00  4.89450978E+00 -9.22412826E+00 -2.38347684E+00 -2.38347684E+00
  1.51913848E+00  1.51913848E+00  1.51913848E+00  1.51913848E+00  1.51913848E+00
  1.51913848E+00  4.89450978E+00 -9.22412826E+00 -2.38347684E+00 -2.38347684E+00
  1.51913848E+00  1.51913848E+00  1.51913848E+00  1.51913848E+00  1.51913848E+00
  1.51913848E+00  4.89450978E+00 -9.22412826E+00 -2.38347684E+00 -2.38347684E+00
  1.51913848E+00  1.51913848E+00  1.51913848E+00  1.51913848E+00  1.51913848E+00
  1.51913848E+00
%FLAG ATOMIC_NUMBER                                                             
%FORMAT(10I8)                                                                   
       8       8       7       7       6       6       6       6       6       6
       6       6       6       6       6       6       6       6       6       6
       6       6       6       6       1       1       1       1       1       1
       1       1       1       1       1       1      16       8       6       6
       1       1       1       1       1       1      16       8       6       6
       1       1       1       1       1       1      16       8       6       6
       1       1       1       1       1       1      16       8       6       6
       1       1       1       1       1       1      16       8       6       6
       1       1       1       1       1       1      16       8       6       6
       1       1       1       1       1       1      16       8       6       6
       1       1       1       1       1       1      16       8       6       6
       1       1       1       1       1       1      16       8       6       6
       1       1       1       1       1       1      16       8       6       6
       1       1       1       1       1       1      16       8       6       6
       1       1       1       1       1       1      16       8       6       6
       1       1       1       1       1       1      16       8       6       6
       1       1       1       1       1       1      16       8       6       6
       1       1       1       1       1       1      16       8       6       6
       1       1       1       1       1       1      16       8       6       6
       1       1       1       1       1       1      16       8       6       6
       1       1       1       1       1       1      16       8       6       6
       1       1       1       1       1       1      16       8       6       6
       1       1       1       1       1       1      16       8       6       6
       1       1       1       1       1       1      16       8       6       6
       1       1       1       1       1       1      16       8       6       6
       1       1       1       1       1       1      16       8       6       6
       1       1       1       1       1       1      16       8       6       6
       1       1       1       1       1       1      16       8       6       6
       1       1       1       1       1       1      16       8       6       6
       1       1       1       1       1       1      16       8       6       6
       1       1       1       1       1       1      16       8       6       6
       1       1       1       1       1       1      16       8       6       6
       1       1       1       1       1       1      16       8       6       6
       1       1       1       1       1       1      16       8       6       6
       1       1       1       1       1       1      16       8       6       6
       1       1       1       1       1       1      16       8       6       6
       1       1       1       1       1       1      16       8       6       6
       1       1       1       1       1       1      16       8       6       6
       1       1       1       1       1       1      16       8       6       6
       1       1       1       1       1       1      16       8       6       6
       1       1       1       1       1       1      16       8       6       6
       1       1       1       1       1       1      16       8       6       6
       1       1       1       1       1       1      16       8       6       6
       1       1       1       1       1       1      16       8       6       6
       1       1       1       1       1       1      16       8       6       6
       1       1       1       1       1       1      16       8       6       6
       1       1       1       1       1       1      16       8       6       6
       1       1       1       1       1       1      16       8       6       6
       1       1       1       1       1       1      16       8       6       6
       1       1       1       1       1       1      16       8       6       6
       1       1       1       1       1       1      16       8       6       6
       1       1       1       1       1       1      16       8       6       6
       1       1       1       1       1       1      16       8       6       6
       1       1       1       1       1       1      16       8       6       6
       1       1       1       1       1       1      16       8       6       6
       1       1       1       1       1       1      16       8       6       6
       1       1       1       1       1       1      16       8       6       6
       1       1       1       1       1       1      16       8       6       6
       1       1       1       1       1       1      16       8       6       6
       1       1       1       1       1       1      16       8       6       6
       1       1       1       1       1       1      16       8       6       6
       1       1       1       1       1       1      16       8       6       6
       1       1       1       1       1       1      16       8       6       6
       1       1       1       1       1       1      16       8       6       6
       1       1       1       1       1       1      16       8       6       6
       1       1       1       1       1       1      16       8       6       6
       1       1       1       1       1       1      16       8       6       6
       1       1       1       1       1       1      16       8       6       6
       1       1       1       1       1       1      16       8       6       6
       1       1       1       1       1       1      16       8       6       6
       1       1       1       1       1       1      16       8       6       6
       1       1       1       1       1       1      16       8       6       6
       1       1       1       1       1       1      16       8       6       6
       1       1       1       1       1       1      16       8       6       6
       1       1       1       1       1       1      16       8       6       6
       1       1       1       1       1       1      16       8       6       6
       1       1       1       1       1       1      16       8       6       6
       1       1       1       1       1       1      16       8       6       6
       1       1       1       1       1       1      16       8       6       6
       1       1       1       1       1       1      16       8       6       6
       1       1       1       1       1       1      16       8       6       6
       1       1       1       1       1       1      16       8       6       6
       1       1       1       1       1       1      16       8       6       6
       1       1       1       1       1       1      16       8       6       6
       1       1       1       1       1       1      16       8       6       6
       1       1       1       1       1       1      16       8       6       6
       1       1       1       1       1       1      16       8       6       6
       1       1       1       1       1       1      16       8       6       6
       1       1       1       1       1       1      16       8       6       6
       1       1       1       1       1       1      16       8       6       6
       1       1       1       1       1       1      16       8       6       6
       1       1       1       1       1       1      16       8       6       6
       1       1       1       1       1       1      16       8       6       6
       1       1       1       1       1       1      16       8       6       6
       1       1       1       1       1       1      16       8       6       6
       1       1       1       1       1       1      16       8       6       6
       1       1       1       1       1       1      16       8       6       6
       1       1       1       1       1       1      16       8       6       6
       1       1       1       1       1       1      16       8       6       6
       1       1       1       1       1       1      16       8       6       6
       1       1       1       1       1       1      16       8       6       6
       1       1       1       1       1       1      16       8       6       6
       1       1       1       1       1       1      16       8       6       6
       1       1       1       1       1       1      16       8       6       6
       1       1       1       1       1       1      16       8       6       6
       1       1       1       1       1       1      16       8       6       6
       1       1       1       1       1       1      16       8       6       6
       1       1       1       1       1       1      16       8       6       6
       1       1       1       1       1       1      16       8       6       6
       1       1       1       1       1       1      16       8       6       6
       1       1       1       1       1       1      16       8       6       6
       1       1       1       1       1       1      16       8       6       6
       1       1       1       1       1       1      16       8       6       6
       1       1       1       1       1       1      16       8       6       6
       1       1       1       1       1       1      16       8       6       6
       1       1       1       1       1       1      16       8       6       6
       1       1       1       1       1       1      16       8       6       6
       1       1       1       1       1       1      16       8       6       6
       1       1       1       1       1       1      16       8       6       6
       1       1       1       1       1       1      16       8       6       6
       1       1       1       1       1       1      16       8       6       6
       1       1       1       1       1       1      16       8       6       6
       1       1       1       1       1       1      16       8       6       6
       1       1       1       1       1       1      16       8       6       6
       1       1       1       1       1       1      16       8       6       6
       1       1       1       1       1       1      16       8       6       6
       1       1       1       1       1       1      16       8       6       6
       1       1       1       1       1       1      16       8       6       6
       1       1       1       1       1       1      16       8       6       6
       1       1       1       1       1       1      16       8       6       6
       1       1       1       1       1       1      16       8       6       6
       1       1       1       1       1       1      16       8       6       6
       1       1       1       1       1       1      16       8       6       6
       1       1       1       1       1       1      16       8       6       6
       1       1       1       1       1       1      16       8       6       6
       1       1       1       1       1       1      16       8       6       6
       1       1       1       1       1       1      16       8       6       6
       1       1       1       1       1       1      16       8       6       6
       1       1       1       1       1       1      16       8       6       6
       1       1       1       1       1       1      16       8       6       6
       1       1       1       1       1       1      16       8       6       6
       1       1       1       1       1       1      16       8       6       6
       1       1       1       1       1       1      16       8       6       6
       1       1       1       1       1       1      16       8       6       6
       1       1       1       1       1       1      16       8       6       6
       1       1       1       1       1       1      16       8       6       6
       1       1       1       1       1       1      16       8       6       6
       1       1       1       1       1       1      16       8       6       6
       1       1       1       1       1       1      16       8       6       6
       1       1       1       1       1       1      16       8       6       6
       1       1       1       1       1       1      16       8       6       6
       1       1       1       1       1       1      16       8       6       6
       1       1       1       1       1       1      16       8       6       6
       1       1       1       1       1       1      16       8       6       6
       1       1       1       1       1       1      16       8       6       6
       1       1       1       1       1       1      16       8       6       6
       1       1       1       1       1       1      16       8       6       6
       1       1       1       1       1       1      16       8       6       6
       1       1       1       1       1       1      16       8       6       6
       1       1       1       1       1       1      16       8       6       6
       1       1       1       1       1       1      16       8       6       6
       1       1       1       1       1       1      16       8       6       6
       1       1       1       1       1       1      16       8       6       6
       1       1       1       1       1       1      16       8       6       6
       1       1       1       1       1       1      16       8       6       6
       1       1       1       1       1       1      16       8       6       6
       1       1       1       1       1       1      16       8       6       6
       1       1       1       1       1       1      16       8       6       6
       1       1       1       1       1       1      16       8       6       6
       1       1       1       1       1       1      16       8       6       6
       1       1       1       1       1       1      16       8       6       6
       1       1       1       1       1       1      16       8       6       6
       1       1       1       1       1       1      16       8       6       6
       1       1       1       1       1       1      16       8       6       6
       1       1       1       1       1       1      16       8       6       6
       1       1       1       1       1       1      16       8       6       6
       1       1       1       1       1       1      16       8       6       6
       1       1       1       1       1       1      16       8       6       6
       1       1       1       1       1       1      16       8       6       6
       1       1       1       1       1       1      16       8       6       6
       1       1       1       1       1       1      16       8       6       6
       1       1       1       1       1       1      16       8       6       6
       1       1       1       1       1       1      16       8       6       6
       1       1       1       1       1       1      16       8       6       6
       1       1       1       1       1       1      16       8       6       6
       1       1       1       1       1       1      16       8       6       6
       1       1       1       1       1       1      16       8       6       6
       1       1       1       1       1       1      16       8       6       6
       1       1       1       1       1       1      16       8       6       6
       1       1       1       1       1       1      16       8       6       6
       1       1       1       1       1       1      16       8       6       6
       1       1       1       1       1       1      16       8       6       6
       1       1       1       1       1       1      16       8       6       6
       1       1       1       1       1       1      16       8       6       6
       1       1       1       1       1       1      16       8       6       6
       1       1       1       1       1       1      16       8       6       6
       1       1       1       1       1       1      16       8       6       6
       1       1       1       1       1       1      16       8       6       6
       1       1       1       1       1       1      16       8       6       6
       1       1       1       1       1       1      16       8       6       6
       1       1       1       1       1       1      16       8       6       6
       1       1       1       1       1       1      16       8       6       6
       1       1       1       1       1       1      16       8       6       6
       1       1       1       1       1       1      16       8       6       6
       1       1       1       1       1       1      16       8       6       6
       1       1       1       1       1       1      16       8       6       6
       1       1       1       1       1       1      16       8       6       6
       1       1       1       1       1       1      16       8       6       6
       1       1       1       1       1       1      16       8       6       6
       1       1       1       1       1       1      16       8       6       6
       1       1       1       1       1       1      16       8       6       6
       1       1       1       1       1       1      16       8       6       6
       1       1       1       1       1       1      16       8       6       6
       1       1       1       1       1       1      16       8       6       6
       1       1       1       1       1       1      16       8       6       6
       1       1       1       1       1       1      16       8       6       6
       1       1       1       1       1       1      16       8       6       6
       1       1       1       1       1       1      16       8       6       6
       1       1       1       1       1       1      16       8       6       6
       1       1       1       1       1       1      16       8       6       6
       1       1       1       1       1       1      16       8       6       6
       1       1       1       1       1       1      16       8       6       6
       1       1       1       1       1       1      16       8       6       6
       1       1       1       1       1       1      16       8       6       6
       1       1       1       1       1       1      16       8       6       6
       1       1       1       1       1       1      16       8       6       6
       1       1       1       1       1       1      16       8       6       6
       1       1       1       1       1       1      16       8       6       6
       1       1       1       1       1       1      16       8       6       6
       1       1       1       1       1       1      16       8       6       6
       1       1       1       1       1       1      16       8       6       6
       1       1       1       1       1       1      16       8       6       6
       1       1       1       1       1       1      16       8       6       6
       1       1       1       1       1       1      16       8       6       6
       1       1       1       1       1       1      16       8       6       6
       1       1       1       1       1       1      16       8       6       6
       1       1       1       1       1       1      16       8       6       6
       1       1       1       1       1       1      16       8       6       6
       1       1       1       1       1       1      16       8       6       6
       1       1       1       1       1       1      16       8       6       6
       1       1       1       1       1       1      16       8       6       6
       1       1       1       1       1       1      16       8       6       6
       1       1       1       1       1       1      16       8       6       6
       1       1       1       1       1       1      16       8       6       6
       1       1       1       1       1       1      16       8       6       6
       1       1       1       1       1       1      16       8       6       6
       1       1       1       1       1       1      16       8       6       6
       1       1       1       1       1       1      16       8       6       6
       1       1       1       1       1       1      16       8       6       6
       1       1       1       1       1       1      16       8       6       6
       1       1       1       1       1       1      16       8       6       6
       1       1       1       1       1       1      16       8       6       6
       1       1       1       1       1       1      16       8       6       6
       1       1       1       1       1       1      16       8       6       6
       1       1       1       1       1       1      16       8       6       6
       1       1       1       1       1       1      16       8       6       6
       1       1       1       1       1       1      16       8       6       6
       1       1       1       1       1       1      16       8       6       6
       1       1       1       1       1       1      16       8       6       6
       1       1       1       1       1       1      16       8       6       6
       1       1       1       1       1       1      16       8       6       6
       1       1       1       1       1       1      16       8       6       6
       1       1       1       1       1       1      16       8       6       6
       1       1       1       1       1       1      16       8       6       6
       1       1       1       1       1       1      16       8       6       6
       1       1       1       1       1       1      16       8       6       6
       1       1       1       1       1       1      16       8       6       6
       1       1       1       1       1       1      16       8       6       6
       1       1       1       1       1       1      16       8       6       6
       1       1       1       1       1       1      16       8       6       6
       1       1       1       1       1       1      16       8       6       6
       1       1       1       1       1       1      16       8       6       6
       1       1       1       1       1       1      16       8       6       6
       1       1       1       1       1       1      16       8       6       6
       1       1       1       1       1       1      16       8       6       6
       1       1       1       1       1       1      16       8       6       6
       1       1       1       1       1       1      16       8       6       6
       1       1       1       1       1       1      16       8       6       6
       1       1       1       1       1       1      16       8       6       6
       1       1       1       1       1       1      16       8       6       6
       1       1       1       1       1       1      16       8       6       6
       1       1       1       1       1       1      16       8       6       6
       1       1       1       1       1       1      16       8       6       6
       1       1       1       1       1       1      16       8       6       6
       1       1       1       1       1       1      16       8       6       6
       1       1       1       1       1       1      16       8       6       6
       1       1       1       1       1       1      16       8       6       6
       1       1       1       1       1       1      16       8       6       6
       1       1       1       1       1       1      16       8       6       6
       1       1       1       1       1       1      16       8       6       6
       1       1       1       1       1       1      16       8       6       6
       1       1       1       1       1       1      16       8       6       6
       1       1       1       1       1       1      16       8       6       6
       1       1       1       1       1       1      16       8       6       6
       1       1       1       1       1       1      16       8       6       6
       1       1       1       1       1       1      16       8       6       6
       1       1       1       1       1       1      16       8       6       6
       1       1       1       1       1       1      16       8       6       6
       1       1       1       1       1       1      16       8       6       6
       1       1       1       1       1       1      16       8       6       6
       1       1       1       1       1       1      16       8       6       6
       1       1       1       1       1       1      16       8       6       6
       1       1       1       1       1       1      16       8       6       6
       1       1       1       1       1       1      16       8       6       6
       1       1       1       1       1       1      16       8       6       6
       1       1       1       1       1       1      16       8       6       6
       1       1       1       1       1       1      16       8       6       6
       1       1       1       1       1       1      16       8       6       6
       1       1       1       1       1       1      16       8       6       6
       1       1       1       1       1       1      16       8       6       6
       1       1       1       1       1       1      16       8       6       6
       1       1       1       1       1       1      16       8       6       6
       1       1       1       1       1       1      16       8       6       6
       1       1       1       1       1       1      16       8       6       6
       1       1       1       1       1       1      16       8       6       6
       1       1       1       1       1       1      16       8       6       6
       1       1       1       1       1       1      16       8       6       6
       1       1       1       1       1       1      16       8       6       6
       1       1       1       1       1       1      16       8       6       6
       1       1       1       1       1       1      16       8       6       6
       1       1       1       1       1       1      16       8       6       6
       1       1       1       1       1       1      16       8       6       6
       1       1       1       1       1       1      16       8       6       6
       1       1       1       1       1       1      16       8       6       6
       1       1       1       1       1       1      16       8       6       6
       1       1       1       1       1       1      16       8       6       6
       1       1       1       1       1       1      16       8       6       6
       1       1       1       1       1       1      16       8       6       6
       1       1       1       1       1       1      16       8       6       6
       1       1       1       1       1       1      16       8       6       6
       1       1       1       1       1       1      16       8       6       6
       1       1       1       1       1       1      16       8       6       6
       1       1       1       1       1       1      16       8       6       6
       1       1       1       1       1       1      16       8       6       6
       1       1       1       1       1       1      16       8       6       6
       1       1       1       1       1       1      16       8       6       6
       1       1       1       1       1       1      16       8       6       6
       1       1       1       1       1       1      16       8       6       6
       1       1       1       1       1       1      16       8       6       6
       1       1       1       1       1       1      16       8       6       6
       1       1       1       1       1       1      16       8       6       6
       1       1       1       1       1       1      16       8       6       6
       1       1       1       1       1       1      16       8       6       6
       1       1       1       1       1       1
%FLAG MASS                                                                      
%FORMAT(5E16.8)                                                                 
  1.60000000E+01  1.60000000E+01  1.40100000E+01  1.40100000E+01  1.20100000E+01
  1.20100000E+01  1.20100000E+01  1.20100000E+01  1.20100000E+01  1.20100000E+01
  1.20100000E+01  1.20100000E+01  1.20100000E+01  1.20100000E+01  1.20100000E+01
  1.20100000E+01  1.20100000E+01  1.20100000E+01  1.20100000E+01  1.20100000E+01
  1.20100000E+01  1.20100000E+01  1.20100000E+01  1.20100000E+01  1.00800000E+00
  1.00800000E+00  1.00800000E+00  1.00800000E+00  1.00800000E+00  1.00800000E+00
  1.00800000E+00  1.00800000E+00  1.00800000E+00  1.00800000E+00  1.00800000E+00
  1.00800000E+00  3.20600000E+01  1.60000000E+01  1.20100000E+01  1.20100000E+01
  1.00800000E+00  1.00800000E+00  1.00800000E+00  1.00800000E+00  1.00800000E+00
  1.00800000E+00  3.20600000E+01  1.60000000E+01  1.20100000E+01  1.20100000E+01
  1.00800000E+00  1.00800000E+00  1.00800000E+00  1.00800000E+00  1.00800000E+00
  1.00800000E+00  3.20600000E+01  1.60000000E+01  1.20100000E+01  1.20100000E+01
  1.00800000E+00  1.00800000E+00  1.00800000E+00  1.00800000E+00  1.00800000E+00
  1.00800000E+00  3.20600000E+01  1.60000000E+01  1.20100000E+01  1.20100000E+01
  1.00800000E+00  1.00800000E+00  1.00800000E+00  1.00800000E+00  1.00800000E+00
  1.00800000E+00  3.20600000E+01  1.60000000E+01  1.20100000E+01  1.20100000E+01
  1.00800000E+00  1.00800000E+00  1.00800000E+00  1.00800000E+00  1.00800000E+00
  1.00800000E+00  3.20600000E+01  1.60000000E+01  1.20100000E+01  1.20100000E+01
  1.00800000E+00  1.00800000E+00  1.00800000E+00  1.00800000E+00  1.00800000E+00
  1.00800000E+00  3.20600000E+01  1.60000000E+01  1.20100000E+01  1.20100000E+01
  1.00800000E+00  1.00800000E+00  1.00800000E+00  1.00800000E+00  1.00800000E+00
  1.00800000E+00  3.20600000E+01  1.60000000E+01  1.20100000E+01  1.20100000E+01
  1.00800000E+00  1.00800000E+00  1.00800000E+00  1.00800000E+00  1.00800000E+00
  1.00800000E+00  3.20600000E+01  1.60000000E+01  1.20100000E+01  1.20100000E+01
  1.00800000E+00  1.00800000E+00  1.00800000E+00  1.00800000E+00  1.00800000E+00
  1.00800000E+00  3.20600000E+01  1.60000000E+01  1.20100000E+01  1.20100000E+01
  1.00800000E+00  1.00800000E+00  1.00800000E+00  1.00800000E+00  1.00800000E+00
  1.00800000E+00  3.20600000E+01  1.60000000E+01  1.20100000E+01  1.20100000E+01
  1.00800000E+00  1.00800000E+00  1.00800000E+00  1.00800000E+00  1.00800000E+00
  1.00800000E+00  3.20600000E+01  1.60000000E+01  1.20100000E+01  1.20100000E+01
  1.00800000E+00  1.00800000E+00  1.00800000E+00  1.00800000E+00  1.00800000E+00
  1.00800000E+00  3.20600000E+01  1.60000000E+01  1.20100000E+01  1.20100000E+01
  1.00800000E+00  1.00800000E+00  1.00800000E+00  1.00800000E+00  1.00800000E+00
  1.00800000E+00  3.20600000E+01  1.60000000E+01  1.20100000E+01  1.20100000E+01
  1.00800000E+00  1.00800000E+00  1.00800000E+00  1.00800000E+00  1.00800000E+00
  1.00800000E+00  3.20600000E+01  1.60000000E+01  1.20100000E+01  1.20100000E+01
  1.00800000E+00  1.00800000E+00  1.00800000E+00  1.00800000E+00  1.00800000E+00
  1.00800000E+00  3.20600000E+01  1.60000000E+01  1.20100000E+01  1.20100000E+01
  1.00800000E+00  1.00800000E+00  1.00800000E+00  1.00800000E+00  1.00800000E+00
  1.00800000E+00  3.20600000E+01  1.60000000E+01  1.20100000E+01  1.20100000E+01
  1.00800000E+00  1.00800000E+00  1.00800000E+00  1.00800000E+00  1.00800000E+00
  1.00800000E+00  3.20600000E+01  1.60000000E+01  1.20100000E+01  1.20100000E+01
  1.00800000E+00  1.00800000E+00  1.00800000E+00  1.00800000E+00  1.00800000E+00
  1.00800000E+00  3.20600000E+01  1.60000000E+01  1.20100000E+01  1.20100000E+01
  1.00800000E+00  1.00800000E+00  1.00800000E+00  1.00800000E+00  1.00800000E+00
  1.00800000E+00  3.20600000E+01  1.60000000E+01  1.20100000E+01  1.20100000E+01
  1.00800000E+00  1.00800000E+00  1.00800000E+00  1.00800000E+00  1.00800000E+00
  1.00800000E+00  3.20600000E+01  1.60000000E+01  1.20100000E+01  1.20100000E+01
  1.00800000E+00  1.00800000E+00  1.00800000E+00  1.00800000E+00  1.00800000E+00
  1.00800000E+00  3.20600000E+01  1.60000000E+01  1.20100000E+01  1.20100000E+01
  1.00800000E+00  1.00800000E+00  1.00800000E+00  1.00800000E+00  1.00800000E+00
  1.00800000E+00  3.20600000E+01  1.60000000E+01  1.20100000E+01  1.20100000E+01
  1.00800000E+00  1.00800000E+00  1.00800000E+00  1.00800000E+00  1.00800000E+00
  1.00800000E+00  3.20600000E+01  1.60000000E+01  1.20100000E+01  1.20100000E+01
  1.00800000E+00  1.00800000E+00  1.00800000E+00  1.00800000E+00  1.00800000E+00
  1.00800000E+00  3.20600000E+01  1.60000000E+01  1.20100000E+01  1.20100000E+01
  1.00800000E+00  1.00800000E+00  1.00800000E+00  1.00800000E+00  1.00800000E+00
  1.00800000E+00  3.20600000E+01  1.60000000E+01  1.20100000E+01  1.20100000E+01
  1.00800000E+00  1.00800000E+00  1.00800000E+00  1.00800000E+00  1.00800000E+00
  1.00800000E+00  3.20600000E+01  1.60000000E+01  1.20100000E+01  1.20100000E+01
  1.00800000E+00  1.00800000E+00  1.00800000E+00  1.00800000E+00  1.00800000E+00
  1.00800000E+00  3.20600000E+01  1.60000000E+01  1.20100000E+01  1.20100000E+01
  1.00800000E+00  1.00800000E+00  1.00800000E+00  1.00800000E+00  1.00800000E+00
  1.00800000E+00  3.20600000E+01  1.60000000E+01  1.20100000E+01  1.20100000E+01
  1.00800000E+00  1.00800000E+00  1.00800000E+00  1.00800000E+00  1.00800000E+00
  1.00800000E+00  3.20600000E+01  1.60000000E+01  1.20100000E+01  1.20100000E+01
  1.00800000E+00  1.00800000E+00  1.00800000E+00  1.00800000E+00  1.00800000E+00
  1.00800000E+00  3.20600000E+01  1.60000000E+01  1.20100000E+01  1.20100000E+01
  1.00800000E+00  1.00800000E+00  1.00800000E+00  1.00800000E+00  1.00800000E+00
  1.00800000E+00  3.20600000E+01  1.60000000E+01  1.20100000E+01  1.20100000E+01
  1.00800000E+00  1.00800000E+00  1.00800000E+00  1.00800000E+00  1.00800000E+00
  1.00800000E+00  3.20600000E+01  1.60000000E+01  1.20100000E+01  1.20100000E+01
  1.00800000E+00  1.00800000E+00  1.00800000E+00  1.00800000E+00  1.00800000E+00
  1.00800000E+00  3.20600000E+01  1.60000000E+01  1.20100000E+01  1.20100000E+01
  1.00800000E+00  1.00800000E+00  1.00800000E+00  1.00800000E+00  1.00800000E+00
  1.00800000E+00  3.20600000E+01  1.60000000E+01  1.20100000E+01  1.20100000E+01
  1.00800000E+00  1.00800000E+00  1.00800000E+00  1.00800000E+00  1.00800000E+00
  1.00800000E+00  3.20600000E+01  1.60000000E+01  1.20100000E+01  1.20100000E+01
  1.00800000E+00  1.00800000E+00  1.00800000E+00  1.00800000E+00  1.00800000E+00
  1.00800000E+00  3.20600000E+01  1.60000000E+01  1.20100000E+01  1.20100000E+01
  1.00800000E+00  1.00800000E+00  1.00800000E+00  1.00800000E+00  1.00800000E+00
  1.00800000E+00  3.20600000E+01  1.60000000E+01  1.20100000E+01  1.20100000E+01
  1.00800000E+00  1.00800000E+00  1.00800000E+00  1.00800000E+00  1.00800000E+00
  1.00800000E+00  3.20600000E+01  1.60000000E+01  1.20100000E+01  1.20100000E+01
  1.00800000E+00  1.00800000E+00  1.00800000E+00  1.00800000E+00  1.00800000E+00
  1.00800000E+00  3.20600000E+01  1.60000000E+01  1.20100000E+01  1.20100000E+01
  1.00800000E+00  1.00800000E+00  1.00800000E+00  1.00800000E+00  1.00800000E+00
  1.00800000E+00  3.20600000E+01  1.60000000E+01  1.20100000E+01  1.20100000E+01
  1.00800000E+00  1.00800000E+00  1.00800000E+00  1.00800000E+00  1.00800000E+00
  1.00800000E+00  3.20600000E+01  1.60000000E+01  1.20100000E+01  1.20100000E+01
  1.00800000E+00  1.00800000E+00  1.00800000E+00  1.00800000E+00  1.00800000E+00
  1.00800000E+00  3.20600000E+01  1.60000000E+01  1.20100000E+01  1.20100000E+01
  1.00800000E+00  1.00800000E+00  1.00800000E+00  1.00800000E+00  1.00800000E+00
  1.00800000E+00  3.20600000E+01  1.60000000E+01  1.20100000E+01  1.20100000E+01
  1.00800000E+00  1.00800000E+00  1.00800000E+00  1.00800000E+00  1.00800000E+00
  1.00800000E+00  3.20600000E+01  1.60000000E+01  1.20100000E+01  1.20100000E+01
  1.00800000E+00  1.00800000E+00  1.00800000E+00  1.00800000E+00  1.00800000E+00
  1.00800000E+00  3.20600000E+01  1.60000000E+01  1.20100000E+01  1.20100000E+01
  1.00800000E+00  1.00800000E+00  1.00800000E+00  1.00800000E+00  1.00800000E+00
  1.00800000E+00  3.20600000E+01  1.60000000E+01  1.20100000E+01  1.20100000E+01
  1.00800000E+00  1.00800000E+00  1.00800000E+00  1.00800000E+00  1.00800000E+00
  1.00800000E+00  3.20600000E+01  1.60000000E+01  1.20100000E+01  1.20100000E+01
  1.00800000E+00  1.00800000E+00  1.00800000E+00  1.00800000E+00  1.00800000E+00
  1.00800000E+00  3.20600000E+01  1.60000000E+01  1.20100000E+01  1.20100000E+01
  1.00800000E+00  1.00800000E+00  1.00800000E+00  1.00800000E+00  1.00800000E+00
  1.00800000E+00  3.20600000E+01  1.60000000E+01  1.20100000E+01  1.20100000E+01
  1.00800000E+00  1.00800000E+00  1.00800000E+00  1.00800000E+00  1.00800000E+00
  1.00800000E+00  3.20600000E+01  1.60000000E+01  1.20100000E+01  1.20100000E+01
  1.00800000E+00  1.00800000E+00  1.00800000E+00  1.00800000E+00  1.00800000E+00
  1.00800000E+00  3.20600000E+01  1.60000000E+01  1.20100000E+01  1.20100000E+01
  1.00800000E+00  1.00800000E+00  1.00800000E+00  1.00800000E+00  1.00800000E+00
  1.00800000E+00  3.20600000E+01  1.60000000E+01  1.20100000E+01  1.20100000E+01
  1.00800000E+00  1.00800000E+00  1.00800000E+00  1.00800000E+00  1.00800000E+00
  1.00800000E+00  3.20600000E+01  1.60000000E+01  1.20100000E+01  1.20100000E+01
  1.00800000E+00  1.00800000E+00  1.00800000E+00  1.00800000E+00  1.00800000E+00
  1.00800000E+00  3.20600000E+01  1.60000000E+01  1.20100000E+01  1.20100000E+01
  1.00800000E+00  1.00800000E+00  1.00800000E+00  1.00800000E+00  1.00800000E+00
  1.00800000E+00  3.20600000E+01  1.60000000E+01  1.20100000E+01  1.20100000E+01
  1.00800000E+00  1.00800000E+00  1.00800000E+00  1.00800000E+00  1.00800000E+00
  1.00800000E+00  3.20600000E+01  1.60000000E+01  1.20100000E+01  1.20100000E+01
  1.00800000E+00  1.00800000E+00  1.00800000E+00  1.00800000E+00  1.00800000E+00
  1.00800000E+00  3.20600000E+01  1.60000000E+01  1.20100000E+01  1.20100000E+01
  1.00800000E+00  1.00800000E+00  1.00800000E+00  1.00800000E+00  1.00800000E+00
  1.00800000E+00  3.20600000E+01  1.60000000E+01  1.20100000E+01  1.20100000E+01
  1.00800000E+00  1.00800000E+00  1.00800000E+00  1.00800000E+00  1.00800000E+00
  1.00800000E+00  3.20600000E+01  1.60000000E+01  1.20100000E+01  1.20100000E+01
  1.00800000E+00  1.00800000E+00  1.00800000E+00  1.00800000E+00  1.00800000E+00
  1.00800000E+00  3.20600000E+01  1.60000000E+01  1.20100000E+01  1.20100000E+01
  1.00800000E+00  1.00800000E+00  1.00800000E+00  1.00800000E+00  1.00800000E+00
  1.00800000E+00  3.20600000E+01  1.60000000E+01  1.20100000E+01  1.20100000E+01
  1.00800000E+00  1.00800000E+00  1.00800000E+00  1.00800000E+00  1.00800000E+00
  1.00800000E+00  3.20600000E+01  1.60000000E+01  1.20100000E+01  1.20100000E+01
  1.00800000E+00  1.00800000E+00  1.00800000E+00  1.00800000E+00  1.00800000E+00
  1.00800000E+00  3.20600000E+01  1.60000000E+01  1.20100000E+01  1.20100000E+01
  1.00800000E+00  1.00800000E+00  1.00800000E+00  1.00800000E+00  1.00800000E+00
  1.00800000E+00  3.20600000E+01  1.60000000E+01  1.20100000E+01  1.20100000E+01
  1.00800000E+00  1.00800000E+00  1.00800000E+00  1.00800000E+00  1.00800000E+00
  1.00800000E+00  3.20600000E+01  1.60000000E+01  1.20100000E+01  1.20100000E+01
  1.00800000E+00  1.00800000E+00  1.00800000E+00  1.00800000E+00  1.00800000E+00
  1.00800000E+00  3.20600000E+01  1.60000000E+01  1.20100000E+01  1.20100000E+01
  1.00800000E+00  1.00800000E+00  1.00800000E+00  1.00800000E+00  1.00800000E+00
  1.00800000E+00  3.20600000E+01  1.60000000E+01  1.20100000E+01  1.20100000E+01
  1.00800000E+00  1.00800000E+00  1.00800000E+00  1.00800000E+00  1.00800000E+00
  1.00800000E+00  3.20600000E+01  1.60000000E+01  1.20100000E+01  1.20100000E+01
  1.00800000E+00  1.00800000E+00  1.00800000E+00  1.00800000E+00  1.00800000E+00
  1.00800000E+00  3.20600000E+01  1.60000000E+01  1.20100000E+01  1.20100000E+01
  1.00800000E+00  1.00800000E+00  1.00800000E+00  1.00800000E+00  1.00800000E+00
  1.00800000E+00  3.20600000E+01  1.60000000E+01  1.20100000E+01  1.20100000E+01
  1.00800000E+00  1.00800000E+00  1.00800000E+00  1.00800000E+00  1.00800000E+00
  1.00800000E+00  3.20600000E+01  1.60000000E+01  1.20100000E+01  1.20100000E+01
  1.00800000E+00  1.00800000E+00  1.00800000E+00  1.00800000E+00  1.00800000E+00
  1.00800000E+00  3.20600000E+01  1.60000000E+01  1.20100000E+01  1.20100000E+01
  1.00800000E+00  1.00800000E+00  1.00800000E+00  1.00800000E+00  1.00800000E+00
  1.00800000E+00  3.20600000E+01  1.60000000E+01  1.20100000E+01  1.20100000E+01
  1.00800000E+00  1.00800000E+00  1.00800000E+00  1.00800000E+00  1.00800000E+00
  1.00800000E+00  3.20600000E+01  1.60000000E+01  1.20100000E+01  1.20100000E+01
  1.00800000E+00  1.00800000E+00  1.00800000E+00  1.00800000E+00  1.00800000E+00
  1.00800000E+00  3.20600000E+01  1.60000000E+01  1.20100000E+01  1.20100000E+01
  1.00800000E+00  1.00800000E+00  1.00800000E+00  1.00800000E+00  1.00800000E+00
  1.00800000E+00  3.20600000E+01  1.60000000E+01  1.20100000E+01  1.20100000E+01
  1.00800000E+00  1.00800000E+00  1.00800000E+00  1.00800000E+00  1.00800000E+00
  1.00800000E+00  3.20600000E+01  1.60000000E+01  1.20100000E+01  1.20100000E+01
  1.00800000E+00  1.00800000E+00  1.00800000E+00  1.00800000E+00  1.00800000E+00
  1.00800000E+00  3.20600000E+01  1.60000000E+01  1.20100000E+01  1.20100000E+01
  1.00800000E+00  1.00800000E+00  1.00800000E+00  1.00800000E+00  1.00800000E+00
  1.00800000E+00  3.20600000E+01  1.60000000E+01  1.20100000E+01  1.20100000E+01
  1.00800000E+00  1.00800000E+00  1.00800000E+00  1.00800000E+00  1.00800000E+00
  1.00800000E+00  3.20600000E+01  1.60000000E+01  1.20100000E+01  1.20100000E+01
  1.00800000E+00  1.00800000E+00  1.00800000E+00  1.00800000E+00  1.00800000E+00
  1.00800000E+00  3.20600000E+01  1.60000000E+01  1.20100000E+01  1.20100000E+01
  1.00800000E+00  1.00800000E+00  1.00800000E+00  1.00800000E+00  1.00800000E+00
  1.00800000E+00  3.20600000E+01  1.60000000E+01  1.20100000E+01  1.20100000E+01
  1.00800000E+00  1.00800000E+00  1.00800000E+00  1.00800000E+00  1.00800000E+00
  1.00800000E+00  3.20600000E+01  1.60000000E+01  1.20100000E+01  1.20100000E+01
  1.00800000E+00  1.00800000E+00  1.00800000E+00  1.00800000E+00  1.00800000E+00
  1.00800000E+00  3.20600000E+01  1.60000000E+01  1.20100000E+01  1.20100000E+01
  1.00800000E+00  1.00800000E+00  1.00800000E+00  1.00800000E+00  1.00800000E+00
  1.00800000E+00  3.20600000E+01  1.60000000E+01  1.20100000E+01  1.20100000E+01
  1.00800000E+00  1.00800000E+00  1.00800000E+00  1.00800000E+00  1.00800000E+00
  1.00800000E+00  3.20600000E+01  1.60000000E+01  1.20100000E+01  1.20100000E+01
  1.00800000E+00  1.00800000E+00  1.00800000E+00  1.00800000E+00  1.00800000E+00
  1.00800000E+00  3.20600000E+01  1.60000000E+01  1.20100000E+01  1.20100000E+01
  1.00800000E+00  1.00800000E+00  1.00800000E+00  1.00800000E+00  1.00800000E+00
  1.00800000E+00  3.20600000E+01  1.60000000E+01  1.20100000E+01  1.20100000E+01
  1.00800000E+00  1.00800000E+00  1.00800000E+00  1.00800000E+00  1.00800000E+00
  1.00800000E+00  3.20600000E+01  1.60000000E+01  1.20100000E+01  1.20100000E+01
  1.00800000E+00  1.00800000E+00  1.00800000E+00  1.00800000E+00  1.00800000E+00
  1.00800000E+00  3.20600000E+01  1.60000000E+01  1.20100000E+01  1.20100000E+01
  1.00800000E+00  1.00800000E+00  1.00800000E+00  1.00800000E+00  1.00800000E+00
  1.00800000E+00  3.20600000E+01  1.60000000E+01  1.20100000E+01  1.20100000E+01
  1.00800000E+00  1.00800000E+00  1.00800000E+00  1.00800000E+00  1.00800000E+00
  1.00800000E+00  3.20600000E+01  1.60000000E+01  1.20100000E+01  1.20100000E+01
  1.00800000E+00  1.00800000E+00  1.00800000E+00  1.00800000E+00  1.00800000E+00
  1.00800000E+00  3.20600000E+01  1.60000000E+01  1.20100000E+01  1.20100000E+01
  1.00800000E+00  1.00800000E+00  1.00800000E+00  1.00800000E+00  1.00800000E+00
  1.00800000E+00  3.20600000E+01  1.60000000E+01  1.20100000E+01  1.20100000E+01
  1.00800000E+00  1.00800000E+00  1.00800000E+00  1.00800000E+00  1.00800000E+00
  1.00800000E+00  3.20600000E+01  1.60000000E+01  1.20100000E+01  1.20100000E+01
  1.00800000E+00  1.00800000E+00  1.00800000E+00  1.00800000E+00  1.00800000E+00
  1.00800000E+00  3.20600000E+01  1.60000000E+01  1.20100000E+01  1.20100000E+01
  1.00800000E+00  1.00800000E+00  1.00800000E+00  1.00800000E+00  1.00800000E+00
  1.00800000E+00  3.20600000E+01  1.60000000E+01  1.20100000E+01  1.20100000E+01
  1.00800000E+00  1.00800000E+00  1.00800000E+00  1.00800000E+00  1.00800000E+00
  1.00800000E+00  3.20600000E+01  1.60000000E+01  1.20100000E+01  1.20100000E+01
  1.00800000E+00  1.00800000E+00  1.00800000E+00  1.00800000E+00  1.00800000E+00
  1.00800000E+00  3.20600000E+01  1.60000000E+01  1.20100000E+01  1.20100000E+01
  1.00800000E+00  1.00800000E+00  1.00800000E+00  1.00800000E+00  1.00800000E+00
  1.00800000E+00  3.20600000E+01  1.60000000E+01  1.20100000E+01  1.20100000E+01
  1.00800000E+00  1.00800000E+00  1.00800000E+00  1.00800000E+00  1.00800000E+00
  1.00800000E+00  3.20600000E+01  1.60000000E+01  1.20100000E+01  1.20100000E+01
  1.00800000E+00  1.00800000E+00  1.00800000E+00  1.00800000E+00  1.00800000E+00
  1.00800000E+00  3.20600000E+01  1.60000000E+01  1.20100000E+01  1.20100000E+01
  1.00800000E+00  1.00800000E+00  1.00800000E+00  1.00800000E+00  1.00800000E+00
  1.00800000E+00  3.20600000E+01  1.60000000E+01  1.20100000E+01  1.20100000E+01
  1.00800000E+00  1.00800000E+00  1.00800000E+00  1.00800000E+00  1.00800000E+00
  1.00800000E+00  3.20600000E+01  1.60000000E+01  1.20100000E+01  1.20100000E+01
  1.00800000E+00  1.00800000E+00  1.00800000E+00  1.00800000E+00  1.00800000E+00
  1.00800000E+00  3.20600000E+01  1.60000000E+01  1.20100000E+01  1.20100000E+01
  1.00800000E+00  1.00800000E+00  1.00800000E+00  1.00800000E+00  1.00800000E+00
  1.00800000E+00  3.20600000E+01  1.60000000E+01  1.20100000E+01  1.20100000E+01
  1.00800000E+00  1.00800000E+00  1.00800000E+00  1.00800000E+00  1.00800000E+00
  1.00800000E+00  3.20600000E+01  1.60000000E+01  1.20100000E+01  1.20100000E+01
  1.00800000E+00  1.00800000E+00  1.00800000E+00  1.00800000E+00  1.00800000E+00
  1.00800000E+00  3.20600000E+01  1.60000000E+01  1.20100000E+01  1.20100000E+01
  1.00800000E+00  1.00800000E+00  1.00800000E+00  1.00800000E+00  1.00800000E+00
  1.00800000E+00  3.20600000E+01  1.60000000E+01  1.20100000E+01  1.20100000E+01
  1.00800000E+00  1.00800000E+00  1.00800000E+00  1.00800000E+00  1.00800000E+00
  1.00800000E+00  3.20600000E+01  1.60000000E+01  1.20100000E+01  1.20100000E+01
  1.00800000E+00  1.00800000E+00  1.00800000E+00  1.00800000E+00  1.00800000E+00
  1.00800000E+00  3.20600000E+01  1.60000000E+01  1.20100000E+01  1.20100000E+01
  1.00800000E+00  1.00800000E+00  1.00800000E+00  1.00800000E+00  1.00800000E+00
  1.00800000E+00  3.20600000E+01  1.60000000E+01  1.20100000E+01  1.20100000E+01
  1.00800000E+00  1.00800000E+00  1.00800000E+00  1.00800000E+00  1.00800000E+00
  1.00800000E+00  3.20600000E+01  1.60000000E+01  1.20100000E+01  1.20100000E+01
  1.00800000E+00  1.00800000E+00  1.00800000E+00  1.00800000E+00  1.00800000E+00
  1.00800000E+00  3.20600000E+01  1.60000000E+01  1.20100000E+01  1.20100000E+01
  1.00800000E+00  1.00800000E+00  1.00800000E+00  1.00800000E+00  1.00800000E+00
  1.00800000E+00  3.20600000E+01  1.60000000E+01  1.20100000E+01  1.20100000E+01
  1.00800000E+00  1.00800000E+00  1.00800000E+00  1.00800000E+00  1.00800000E+00
  1.00800000E+00  3.20600000E+01  1.60000000E+01  1.20100000E+01  1.20100000E+01
  1.00800000E+00  1.00800000E+00  1.00800000E+00  1.00800000E+00  1.00800000E+00
  1.00800000E+00  3.20600000E+01  1.60000000E+01  1.20100000E+01  1.20100000E+01
  1.00800000E+00  1.00800000E+00  1.00800000E+00  1.00800000E+00  1.00800000E+00
  1.00800000E+00  3.20600000E+01  1.60000000E+01  1.20100000E+01  1.20100000E+01
  1.00800000E+00  1.00800000E+00  1.00800000E+00  1.00800000E+00  1.00800000E+00
  1.00800000E+00  3.20600000E+01  1.60000000E+01  1.20100000E+01  1.20100000E+01
  1.00800000E+00  1.00800000E+00  1.00800000E+00  1.00800000E+00  1.00800000E+00
  1.00800000E+00  3.20600000E+01  1.60000000E+01  1.20100000E+01  1.20100000E+01
  1.00800000E+00  1.00800000E+00  1.00800000E+00  1.00800000E+00  1.00800000E+00
  1.00800000E+00  3.20600000E+01  1.60000000E+01  1.20100000E+01  1.20100000E+01
  1.00800000E+00  1.00800000E+00  1.00800000E+00  1.00800000E+00  1.00800000E+00
  1.00800000E+00  3.20600000E+01  1.60000000E+01  1.20100000E+01  1.20100000E+01
  1.00800000E+00  1.00800000E+00  1.00800000E+00  1.00800000E+00  1.00800000E+00
  1.00800000E+00  3.20600000E+01  1.60000000E+01  1.20100000E+01  1.20100000E+01
  1.00800000E+00  1.00800000E+00  1.00800000E+00  1.00800000E+00  1.00800000E+00
  1.00800000E+00  3.20600000E+01  1.60000000E+01  1.20100000E+01  1.20100000E+01
  1.00800000E+00  1.00800000E+00  1.00800000E+00  1.00800000E+00  1.00800000E+00
  1.00800000E+00  3.20600000E+01  1.60000000E+01  1.20100000E+01  1.20100000E+01
  1.00800000E+00  1.00800000E+00  1.00800000E+00  1.00800000E+00  1.00800000E+00
  1.00800000E+00  3.20600000E+01  1.60000000E+01  1.20100000E+01  1.20100000E+01
  1.00800000E+00  1.00800000E+00  1.00800000E+00  1.00800000E+00  1.00800000E+00
  1.00800000E+00  3.20600000E+01  1.60000000E+01  1.20100000E+01  1.20100000E+01
  1.00800000E+00  1.00800000E+00  1.00800000E+00  1.00800000E+00  1.00800000E+00
  1.00800000E+00  3.20600000E+01  1.60000000E+01  1.20100000E+01  1.20100000E+01
  1.00800000E+00  1.00800000E+00  1.00800000E+00  1.00800000E+00  1.00800000E+00
  1.00800000E+00  3.20600000E+01  1.60000000E+01  1.20100000E+01  1.20100000E+01
  1.00800000E+00  1.00800000E+00  1.00800000E+00  1.00800000E+00  1.00800000E+00
  1.00800000E+00  3.20600000E+01  1.60000000E+01  1.20100000E+01  1.20100000E+01
  1.00800000E+00  1.00800000E+00  1.00800000E+00  1.00800000E+00  1.00800000E+00
  1.00800000E+00  3.20600000E+01  1.60000000E+01  1.20100000E+01  1.20100000E+01
  1.00800000E+00  1.00800000E+00  1.00800000E+00  1.00800000E+00  1.00800000E+00
  1.00800000E+00  3.20600000E+01  1.60000000E+01  1.20100000E+01  1.20100000E+01
  1.00800000E+00  1.00800000E+00  1.00800000E+00  1.00800000E+00  1.00800000E+00
  1.00800000E+00  3.20600000E+01  1.60000000E+01  1.20100000E+01  1.20100000E+01
  1.00800000E+00  1.00800000E+00  1.00800000E+00  1.00800000E+00  1.00800000E+00
  1.00800000E+00  3.20600000E+01  1.60000000E+01  1.20100000E+01  1.20100000E+01
  1.00800000E+00  1.00800000E+00  1.00800000E+00  1.00800000E+00  1.00800000E+00
  1.00800000E+00  3.20600000E+01  1.60000000E+01  1.20100000E+01  1.20100000E+01
  1.00800000E+00  1.00800000E+00  1.00800000E+00  1.00800000E+00  1.00800000E+00
  1.00800000E+00  3.20600000E+01  1.60000000E+01  1.20100000E+01  1.20100000E+01
  1.00800000E+00  1.00800000E+00  1.00800000E+00  1.00800000E+00  1.00800000E+00
  1.00800000E+00  3.20600000E+01  1.60000000E+01  1.20100000E+01  1.20100000E+01
  1.00800000E+00  1.00800000E+00  1.00800000E+00  1.00800000E+00  1.00800000E+00
  1.00800000E+00  3.20600000E+01  1.60000000E+01  1.20100000E+01  1.20100000E+01
  1.00800000E+00  1.00800000E+00  1.00800000E+00  1.00800000E+00  1.00800000E+00
  1.00800000E+00  3.20600000E+01  1.60000000E+01  1.20100000E+01  1.20100000E+01
  1.00800000E+00  1.00800000E+00  1.00800000E+00  1.00800000E+00  1.00800000E+00
  1.00800000E+00  3.20600000E+01  1.60000000E+01  1.20100000E+01  1.20100000E+01
  1.00800000E+00  1.00800000E+00  1.00800000E+00  1.00800000E+00  1.00800000E+00
  1.00800000E+00  3.20600000E+01  1.60000000E+01  1.20100000E+01  1.20100000E+01
  1.00800000E+00  1.00800000E+00  1.00800000E+00  1.00800000E+00  1.00800000E+00
  1.00800000E+00  3.20600000E+01  1.60000000E+01  1.20100000E+01  1.20100000E+01
  1.00800000E+00  1.00800000E+00  1.00800000E+00  1.00800000E+00  1.00800000E+00
  1.00800000E+00  3.20600000E+01  1.60000000E+01  1.20100000E+01  1.20100000E+01
  1.00800000E+00  1.00800000E+00  1.00800000E+00  1.00800000E+00  1.00800000E+00
  1.00800000E+00  3.20600000E+01  1.60000000E+01  1.20100000E+01  1.20100000E+01
  1.00800000E+00  1.00800000E+00  1.00800000E+00  1.00800000E+00  1.00800000E+00
  1.00800000E+00  3.20600000E+01  1.60000000E+01  1.20100000E+01  1.20100000E+01
  1.00800000E+00  1.00800000E+00  1.00800000E+00  1.00800000E+00  1.00800000E+00
  1.00800000E+00  3.20600000E+01  1.60000000E+01  1.20100000E+01  1.20100000E+01
  1.00800000E+00  1.00800000E+00  1.00800000E+00  1.00800000E+00  1.00800000E+00
  1.00800000E+00  3.20600000E+01  1.60000000E+01  1.20100000E+01  1.20100000E+01
  1.00800000E+00  1.00800000E+00  1.00800000E+00  1.00800000E+00  1.00800000E+00
  1.00800000E+00  3.20600000E+01  1.60000000E+01  1.20100000E+01  1.20100000E+01
  1.00800000E+00  1.00800000E+00  1.00800000E+00  1.00800000E+00  1.00800000E+00
  1.00800000E+00  3.20600000E+01  1.60000000E+01  1.20100000E+01  1.20100000E+01
  1.00800000E+00  1.00800000E+00  1.00800000E+00  1.00800000E+00  1.00800000E+00
  1.00800000E+00  3.20600000E+01  1.60000000E+01  1.20100000E+01  1.20100000E+01
  1.00800000E+00  1.00800000E+00  1.00800000E+00  1.00800000E+00  1.00800000E+00
  1.00800000E+00  3.20600000E+01  1.60000000E+01  1.20100000E+01  1.20100000E+01
  1.00800000E+00  1.00800000E+00  1.00800000E+00  1.00800000E+00  1.00800000E+00
  1.00800000E+00  3.20600000E+01  1.60000000E+01  1.20100000E+01  1.20100000E+01
  1.00800000E+00  1.00800000E+00  1.00800000E+00  1.00800000E+00  1.00800000E+00
  1.00800000E+00  3.20600000E+01  1.60000000E+01  1.20100000E+01  1.20100000E+01
  1.00800000E+00  1.00800000E+00  1.00800000E+00  1.00800000E+00  1.00800000E+00
  1.00800000E+00  3.20600000E+01  1.60000000E+01  1.20100000E+01  1.20100000E+01
  1.00800000E+00  1.00800000E+00  1.00800000E+00  1.00800000E+00  1.00800000E+00
  1.00800000E+00  3.20600000E+01  1.60000000E+01  1.20100000E+01  1.20100000E+01
  1.00800000E+00  1.00800000E+00  1.00800000E+00  1.00800000E+00  1.00800000E+00
  1.00800000E+00  3.20600000E+01  1.60000000E+01  1.20100000E+01  1.20100000E+01
  1.00800000E+00  1.00800000E+00  1.00800000E+00  1.00800000E+00  1.00800000E+00
  1.00800000E+00  3.20600000E+01  1.60000000E+01  1.20100000E+01  1.20100000E+01
  1.00800000E+00  1.00800000E+00  1.00800000E+00  1.00800000E+00  1.00800000E+00
  1.00800000E+00  3.20600000E+01  1.60000000E+01  1.20100000E+01  1.20100000E+01
  1.00800000E+00  1.00800000E+00  1.00800000E+00  1.00800000E+00  1.00800000E+00
  1.00800000E+00  3.20600000E+01  1.60000000E+01  1.20100000E+01  1.20100000E+01
  1.00800000E+00  1.00800000E+00  1.00800000E+00  1.00800000E+00  1.00800000E+00
  1.00800000E+00  3.20600000E+01  1.60000000E+01  1.20100000E+01  1.20100000E+01
  1.00800000E+00  1.00800000E+00  1.00800000E+00  1.00800000E+00  1.00800000E+00
  1.00800000E+00  3.20600000E+01  1.60000000E+01  1.20100000E+01  1.20100000E+01
  1.00800000E+00  1.00800000E+00  1.00800000E+00  1.00800000E+00  1.00800000E+00
  1.00800000E+00  3.20600000E+01  1.60000000E+01  1.20100000E+01  1.20100000E+01
  1.00800000E+00  1.00800000E+00  1.00800000E+00  1.00800000E+00  1.00800000E+00
  1.00800000E+00  3.20600000E+01  1.60000000E+01  1.20100000E+01  1.20100000E+01
  1.00800000E+00  1.00800000E+00  1.00800000E+00  1.00800000E+00  1.00800000E+00
  1.00800000E+00  3.20600000E+01  1.60000000E+01  1.20100000E+01  1.20100000E+01
  1.00800000E+00  1.00800000E+00  1.00800000E+00  1.00800000E+00  1.00800000E+00
  1.00800000E+00  3.20600000E+01  1.60000000E+01  1.20100000E+01  1.20100000E+01
  1.00800000E+00  1.00800000E+00  1.00800000E+00  1.00800000E+00  1.00800000E+00
  1.00800000E+00  3.20600000E+01  1.60000000E+01  1.20100000E+01  1.20100000E+01
  1.00800000E+00  1.00800000E+00  1.00800000E+00  1.00800000E+00  1.00800000E+00
  1.00800000E+00  3.20600000E+01  1.60000000E+01  1.20100000E+01  1.20100000E+01
  1.00800000E+00  1.00800000E+00  1.00800000E+00  1.00800000E+00  1.00800000E+00
  1.00800000E+00  3.20600000E+01  1.60000000E+01  1.20100000E+01  1.20100000E+01
  1.00800000E+00  1.00800000E+00  1.00800000E+00  1.00800000E+00  1.00800000E+00
  1.00800000E+00  3.20600000E+01  1.60000000E+01  1.20100000E+01  1.20100000E+01
  1.00800000E+00  1.00800000E+00  1.00800000E+00  1.00800000E+00  1.00800000E+00
  1.00800000E+00  3.20600000E+01  1.60000000E+01  1.20100000E+01  1.20100000E+01
  1.00800000E+00  1.00800000E+00  1.00800000E+00  1.00800000E+00  1.00800000E+00
  1.00800000E+00  3.20600000E+01  1.60000000E+01  1.20100000E+01  1.20100000E+01
  1.00800000E+00  1.00800000E+00  1.00800000E+00  1.00800000E+00  1.00800000E+00
  1.00800000E+00  3.20600000E+01  1.60000000E+01  1.20100000E+01  1.20100000E+01
  1.00800000E+00  1.00800000E+00  1.00800000E+00  1.00800000E+00  1.00800000E+00
  1.00800000E+00  3.20600000E+01  1.60000000E+01  1.20100000E+01  1.20100000E+01
  1.00800000E+00  1.00800000E+00  1.00800000E+00  1.00800000E+00  1.00800000E+00
  1.00800000E+00  3.20600000E+01  1.60000000E+01  1.20100000E+01  1.20100000E+01
  1.00800000E+00  1.00800000E+00  1.00800000E+00  1.00800000E+00  1.00800000E+00
  1.00800000E+00  3.20600000E+01  1.60000000E+01  1.20100000E+01  1.20100000E+01
  1.00800000E+00  1.00800000E+00  1.00800000E+00  1.00800000E+00  1.00800000E+00
  1.00800000E+00  3.20600000E+01  1.60000000E+01  1.20100000E+01  1.20100000E+01
  1.00800000E+00  1.00800000E+00  1.00800000E+00  1.00800000E+00  1.00800000E+00
  1.00800000E+00  3.20600000E+01  1.60000000E+01  1.20100000E+01  1.20100000E+01
  1.00800000E+00  1.00800000E+00  1.00800000E+00  1.00800000E+00  1.00800000E+00
  1.00800000E+00  3.20600000E+01  1.60000000E+01  1.20100000E+01  1.20100000E+01
  1.00800000E+00  1.00800000E+00  1.00800000E+00  1.00800000E+00  1.00800000E+00
  1.00800000E+00  3.20600000E+01  1.60000000E+01  1.20100000E+01  1.20100000E+01
  1.00800000E+00  1.00800000E+00  1.00800000E+00  1.00800000E+00  1.00800000E+00
  1.00800000E+00  3.20600000E+01  1.60000000E+01  1.20100000E+01  1.20100000E+01
  1.00800000E+00  1.00800000E+00  1.00800000E+00  1.00800000E+00  1.00800000E+00
  1.00800000E+00  3.20600000E+01  1.60000000E+01  1.20100000E+01  1.20100000E+01
  1.00800000E+00  1.00800000E+00  1.00800000E+00  1.00800000E+00  1.00800000E+00
  1.00800000E+00  3.20600000E+01  1.60000000E+01  1.20100000E+01  1.20100000E+01
  1.00800000E+00  1.00800000E+00  1.00800000E+00  1.00800000E+00  1.00800000E+00
  1.00800000E+00  3.20600000E+01  1.60000000E+01  1.20100000E+01  1.20100000E+01
  1.00800000E+00  1.00800000E+00  1.00800000E+00  1.00800000E+00  1.00800000E+00
  1.00800000E+00  3.20600000E+01  1.60000000E+01  1.20100000E+01  1.20100000E+01
  1.00800000E+00  1.00800000E+00  1.00800000E+00  1.00800000E+00  1.00800000E+00
  1.00800000E+00  3.20600000E+01  1.60000000E+01  1.20100000E+01  1.20100000E+01
  1.00800000E+00  1.00800000E+00  1.00800000E+00  1.00800000E+00  1.00800000E+00
  1.00800000E+00  3.20600000E+01  1.60000000E+01  1.20100000E+01  1.20100000E+01
  1.00800000E+00  1.00800000E+00  1.00800000E+00  1.00800000E+00  1.00800000E+00
  1.00800000E+00  3.20600000E+01  1.60000000E+01  1.20100000E+01  1.20100000E+01
  1.00800000E+00  1.00800000E+00  1.00800000E+00  1.00800000E+00  1.00800000E+00
  1.00800000E+00  3.20600000E+01  1.60000000E+01  1.20100000E+01  1.20100000E+01
  1.00800000E+00  1.00800000E+00  1.00800000E+00  1.00800000E+00  1.00800000E+00
  1.00800000E+00  3.20600000E+01  1.60000000E+01  1.20100000E+01  1.20100000E+01
  1.00800000E+00  1.00800000E+00  1.00800000E+00  1.00800000E+00  1.00800000E+00
  1.00800000E+00  3.20600000E+01  1.60000000E+01  1.20100000E+01  1.20100000E+01
  1.00800000E+00  1.00800000E+00  1.00800000E+00  1.00800000E+00  1.00800000E+00
  1.00800000E+00  3.20600000E+01  1.60000000E+01  1.20100000E+01  1.20100000E+01
  1.00800000E+00  1.00800000E+00  1.00800000E+00  1.00800000E+00  1.00800000E+00
  1.00800000E+00  3.20600000E+01  1.60000000E+01  1.20100000E+01  1.20100000E+01
  1.00800000E+00  1.00800000E+00  1.00800000E+00  1.00800000E+00  1.00800000E+00
  1.00800000E+00  3.20600000E+01  1.60000000E+01  1.20100000E+01  1.20100000E+01
  1.00800000E+00  1.00800000E+00  1.00800000E+00  1.00800000E+00  1.00800000E+00
  1.00800000E+00  3.20600000E+01  1.60000000E+01  1.20100000E+01  1.20100000E+01
  1.00800000E+00  1.00800000E+00  1.00800000E+00  1.00800000E+00  1.00800000E+00
  1.00800000E+00  3.20600000E+01  1.60000000E+01  1.20100000E+01  1.20100000E+01
  1.00800000E+00  1.00800000E+00  1.00800000E+00  1.00800000E+00  1.00800000E+00
  1.00800000E+00  3.20600000E+01  1.60000000E+01  1.20100000E+01  1.20100000E+01
  1.00800000E+00  1.00800000E+00  1.00800000E+00  1.00800000E+00  1.00800000E+00
  1.00800000E+00  3.20600000E+01  1.60000000E+01  1.20100000E+01  1.20100000E+01
  1.00800000E+00  1.00800000E+00  1.00800000E+00  1.00800000E+00  1.00800000E+00
  1.00800000E+00  3.20600000E+01  1.60000000E+01  1.20100000E+01  1.20100000E+01
  1.00800000E+00  1.00800000E+00  1.00800000E+00  1.00800000E+00  1.00800000E+00
  1.00800000E+00  3.20600000E+01  1.60000000E+01  1.20100000E+01  1.20100000E+01
  1.00800000E+00  1.00800000E+00  1.00800000E+00  1.00800000E+00  1.00800000E+00
  1.00800000E+00  3.20600000E+01  1.60000000E+01  1.20100000E+01  1.20100000E+01
  1.00800000E+00  1.00800000E+00  1.00800000E+00  1.00800000E+00  1.00800000E+00
  1.00800000E+00  3.20600000E+01  1.60000000E+01  1.20100000E+01  1.20100000E+01
  1.00800000E+00  1.00800000E+00  1.00800000E+00  1.00800000E+00  1.00800000E+00
  1.00800000E+00  3.20600000E+01  1.60000000E+01  1.20100000E+01  1.20100000E+01
  1.00800000E+00  1.00800000E+00  1.00800000E+00  1.00800000E+00  1.00800000E+00
  1.00800000E+00  3.20600000E+01  1.60000000E+01  1.20100000E+01  1.20100000E+01
  1.00800000E+00  1.00800000E+00  1.00800000E+00  1.00800000E+00  1.00800000E+00
  1.00800000E+00  3.20600000E+01  1.60000000E+01  1.20100000E+01  1.20100000E+01
  1.00800000E+00  1.00800000E+00  1.00800000E+00  1.00800000E+00  1.00800000E+00
  1.00800000E+00  3.20600000E+01  1.60000000E+01  1.20100000E+01  1.20100000E+01
  1.00800000E+00  1.00800000E+00  1.00800000E+00  1.00800000E+00  1.00800000E+00
  1.00800000E+00  3.20600000E+01  1.60000000E+01  1.20100000E+01  1.20100000E+01
  1.00800000E+00  1.00800000E+00  1.00800000E+00  1.00800000E+00  1.00800000E+00
  1.00800000E+00  3.20600000E+01  1.60000000E+01  1.20100000E+01  1.20100000E+01
  1.00800000E+00  1.00800000E+00  1.00800000E+00  1.00800000E+00  1.00800000E+00
  1.00800000E+00  3.20600000E+01  1.60000000E+01  1.20100000E+01  1.20100000E+01
  1.00800000E+00  1.00800000E+00  1.00800000E+00  1.00800000E+00  1.00800000E+00
  1.00800000E+00  3.20600000E+01  1.60000000E+01  1.20100000E+01  1.20100000E+01
  1.00800000E+00  1.00800000E+00  1.00800000E+00  1.00800000E+00  1.00800000E+00
  1.00800000E+00  3.20600000E+01  1.60000000E+01  1.20100000E+01  1.20100000E+01
  1.00800000E+00  1.00800000E+00  1.00800000E+00  1.00800000E+00  1.00800000E+00
  1.00800000E+00  3.20600000E+01  1.60000000E+01  1.20100000E+01  1.20100000E+01
  1.00800000E+00  1.00800000E+00  1.00800000E+00  1.00800000E+00  1.00800000E+00
  1.00800000E+00  3.20600000E+01  1.60000000E+01  1.20100000E+01  1.20100000E+01
  1.00800000E+00  1.00800000E+00  1.00800000E+00  1.00800000E+00  1.00800000E+00
  1.00800000E+00  3.20600000E+01  1.60000000E+01  1.20100000E+01  1.20100000E+01
  1.00800000E+00  1.00800000E+00  1.00800000E+00  1.00800000E+00  1.00800000E+00
  1.00800000E+00  3.20600000E+01  1.60000000E+01  1.20100000E+01  1.20100000E+01
  1.00800000E+00  1.00800000E+00  1.00800000E+00  1.00800000E+00  1.00800000E+00
  1.00800000E+00  3.20600000E+01  1.60000000E+01  1.20100000E+01  1.20100000E+01
  1.00800000E+00  1.00800000E+00  1.00800000E+00  1.00800000E+00  1.00800000E+00
  1.00800000E+00  3.20600000E+01  1.60000000E+01  1.20100000E+01  1.20100000E+01
  1.00800000E+00  1.00800000E+00  1.00800000E+00  1.00800000E+00  1.00800000E+00
  1.00800000E+00  3.20600000E+01  1.60000000E+01  1.20100000E+01  1.20100000E+01
  1.00800000E+00  1.00800000E+00  1.00800000E+00  1.00800000E+00  1.00800000E+00
  1.00800000E+00  3.20600000E+01  1.60000000E+01  1.20100000E+01  1.20100000E+01
  1.00800000E+00  1.00800000E+00  1.00800000E+00  1.00800000E+00  1.00800000E+00
  1.00800000E+00  3.20600000E+01  1.60000000E+01  1.20100000E+01  1.20100000E+01
  1.00800000E+00  1.00800000E+00  1.00800000E+00  1.00800000E+00  1.00800000E+00
  1.00800000E+00  3.20600000E+01  1.60000000E+01  1.20100000E+01  1.20100000E+01
  1.00800000E+00  1.00800000E+00  1.00800000E+00  1.00800000E+00  1.00800000E+00
  1.00800000E+00  3.20600000E+01  1.60000000E+01  1.20100000E+01  1.20100000E+01
  1.00800000E+00  1.00800000E+00  1.00800000E+00  1.00800000E+00  1.00800000E+00
  1.00800000E+00  3.20600000E+01  1.60000000E+01  1.20100000E+01  1.20100000E+01
  1.00800000E+00  1.00800000E+00  1.00800000E+00  1.00800000E+00  1.00800000E+00
  1.00800000E+00  3.20600000E+01  1.60000000E+01  1.20100000E+01  1.20100000E+01
  1.00800000E+00  1.00800000E+00  1.00800000E+00  1.00800000E+00  1.00800000E+00
  1.00800000E+00  3.20600000E+01  1.60000000E+01  1.20100000E+01  1.20100000E+01
  1.00800000E+00  1.00800000E+00  1.00800000E+00  1.00800000E+00  1.00800000E+00
  1.00800000E+00  3.20600000E+01  1.60000000E+01  1.20100000E+01  1.20100000E+01
  1.00800000E+00  1.00800000E+00  1.00800000E+00  1.00800000E+00  1.00800000E+00
  1.00800000E+00  3.20600000E+01  1.60000000E+01  1.20100000E+01  1.20100000E+01
  1.00800000E+00  1.00800000E+00  1.00800000E+00  1.00800000E+00  1.00800000E+00
  1.00800000E+00  3.20600000E+01  1.60000000E+01  1.20100000E+01  1.20100000E+01
  1.00800000E+00  1.00800000E+00  1.00800000E+00  1.00800000E+00  1.00800000E+00
  1.00800000E+00  3.20600000E+01  1.60000000E+01  1.20100000E+01  1.20100000E+01
  1.00800000E+00  1.00800000E+00  1.00800000E+00  1.00800000E+00  1.00800000E+00
  1.00800000E+00  3.20600000E+01  1.60000000E+01  1.20100000E+01  1.20100000E+01
  1.00800000E+00  1.00800000E+00  1.00800000E+00  1.00800000E+00  1.00800000E+00
  1.00800000E+00  3.20600000E+01  1.60000000E+01  1.20100000E+01  1.20100000E+01
  1.00800000E+00  1.00800000E+00  1.00800000E+00  1.00800000E+00  1.00800000E+00
  1.00800000E+00  3.20600000E+01  1.60000000E+01  1.20100000E+01  1.20100000E+01
  1.00800000E+00  1.00800000E+00  1.00800000E+00  1.00800000E+00  1.00800000E+00
  1.00800000E+00  3.20600000E+01  1.60000000E+01  1.20100000E+01  1.20100000E+01
  1.00800000E+00  1.00800000E+00  1.00800000E+00  1.00800000E+00  1.00800000E+00
  1.00800000E+00  3.20600000E+01  1.60000000E+01  1.20100000E+01  1.20100000E+01
  1.00800000E+00  1.00800000E+00  1.00800000E+00  1.00800000E+00  1.00800000E+00
  1.00800000E+00  3.20600000E+01  1.60000000E+01  1.20100000E+01  1.20100000E+01
  1.00800000E+00  1.00800000E+00  1.00800000E+00  1.00800000E+00  1.00800000E+00
  1.00800000E+00  3.20600000E+01  1.60000000E+01  1.20100000E+01  1.20100000E+01
  1.00800000E+00  1.00800000E+00  1.00800000E+00  1.00800000E+00  1.00800000E+00
  1.00800000E+00  3.20600000E+01  1.60000000E+01  1.20100000E+01  1.20100000E+01
  1.00800000E+00  1.00800000E+00  1.00800000E+00  1.00800000E+00  1.00800000E+00
  1.00800000E+00  3.20600000E+01  1.60000000E+01  1.20100000E+01  1.20100000E+01
  1.00800000E+00  1.00800000E+00  1.00800000E+00  1.00800000E+00  1.00800000E+00
  1.00800000E+00  3.20600000E+01  1.60000000E+01  1.20100000E+01  1.20100000E+01
  1.00800000E+00  1.00800000E+00  1.00800000E+00  1.00800000E+00  1.00800000E+00
  1.00800000E+00  3.20600000E+01  1.60000000E+01  1.20100000E+01  1.20100000E+01
  1.00800000E+00  1.00800000E+00  1.00800000E+00  1.00800000E+00  1.00800000E+00
  1.00800000E+00  3.20600000E+01  1.60000000E+01  1.20100000E+01  1.20100000E+01
  1.00800000E+00  1.00800000E+00  1.00800000E+00  1.00800000E+00  1.00800000E+00
  1.00800000E+00  3.20600000E+01  1.60000000E+01  1.20100000E+01  1.20100000E+01
  1.00800000E+00  1.00800000E+00  1.00800000E+00  1.00800000E+00  1.00800000E+00
  1.00800000E+00  3.20600000E+01  1.60000000E+01  1.20100000E+01  1.20100000E+01
  1.00800000E+00  1.00800000E+00  1.00800000E+00  1.00800000E+00  1.00800000E+00
  1.00800000E+00  3.20600000E+01  1.60000000E+01  1.20100000E+01  1.20100000E+01
  1.00800000E+00  1.00800000E+00  1.00800000E+00  1.00800000E+00  1.00800000E+00
  1.00800000E+00  3.20600000E+01  1.60000000E+01  1.20100000E+01  1.20100000E+01
  1.00800000E+00  1.00800000E+00  1.00800000E+00  1.00800000E+00  1.00800000E+00
  1.00800000E+00  3.20600000E+01  1.60000000E+01  1.20100000E+01  1.20100000E+01
  1.00800000E+00  1.00800000E+00  1.00800000E+00  1.00800000E+00  1.00800000E+00
  1.00800000E+00  3.20600000E+01  1.60000000E+01  1.20100000E+01  1.20100000E+01
  1.00800000E+00  1.00800000E+00  1.00800000E+00  1.00800000E+00  1.00800000E+00
  1.00800000E+00  3.20600000E+01  1.60000000E+01  1.20100000E+01  1.20100000E+01
  1.00800000E+00  1.00800000E+00  1.00800000E+00  1.00800000E+00  1.00800000E+00
  1.00800000E+00  3.20600000E+01  1.60000000E+01  1.20100000E+01  1.20100000E+01
  1.00800000E+00  1.00800000E+00  1.00800000E+00  1.00800000E+00  1.00800000E+00
  1.00800000E+00  3.20600000E+01  1.60000000E+01  1.20100000E+01  1.20100000E+01
  1.00800000E+00  1.00800000E+00  1.00800000E+00  1.00800000E+00  1.00800000E+00
  1.00800000E+00  3.20600000E+01  1.60000000E+01  1.20100000E+01  1.20100000E+01
  1.00800000E+00  1.00800000E+00  1.00800000E+00  1.00800000E+00  1.00800000E+00
  1.00800000E+00  3.20600000E+01  1.60000000E+01  1.20100000E+01  1.20100000E+01
  1.00800000E+00  1.00800000E+00  1.00800000E+00  1.00800000E+00  1.00800000E+00
  1.00800000E+00  3.20600000E+01  1.60000000E+01  1.20100000E+01  1.20100000E+01
  1.00800000E+00  1.00800000E+00  1.00800000E+00  1.00800000E+00  1.00800000E+00
  1.00800000E+00  3.20600000E+01  1.60000000E+01  1.20100000E+01  1.20100000E+01
  1.00800000E+00  1.00800000E+00  1.00800000E+00  1.00800000E+00  1.00800000E+00
  1.00800000E+00  3.20600000E+01  1.60000000E+01  1.20100000E+01  1.20100000E+01
  1.00800000E+00  1.00800000E+00  1.00800000E+00  1.00800000E+00  1.00800000E+00
  1.00800000E+00  3.20600000E+01  1.60000000E+01  1.20100000E+01  1.20100000E+01
  1.00800000E+00  1.00800000E+00  1.00800000E+00  1.00800000E+00  1.00800000E+00
  1.00800000E+00  3.20600000E+01  1.60000000E+01  1.20100000E+01  1.20100000E+01
  1.00800000E+00  1.00800000E+00  1.00800000E+00  1.00800000E+00  1.00800000E+00
  1.00800000E+00  3.20600000E+01  1.60000000E+01  1.20100000E+01  1.20100000E+01
  1.00800000E+00  1.00800000E+00  1.00800000E+00  1.00800000E+00  1.00800000E+00
  1.00800000E+00  3.20600000E+01  1.60000000E+01  1.20100000E+01  1.20100000E+01
  1.00800000E+00  1.00800000E+00  1.00800000E+00  1.00800000E+00  1.00800000E+00
  1.00800000E+00  3.20600000E+01  1.60000000E+01  1.20100000E+01  1.20100000E+01
  1.00800000E+00  1.00800000E+00  1.00800000E+00  1.00800000E+00  1.00800000E+00
  1.00800000E+00  3.20600000E+01  1.60000000E+01  1.20100000E+01  1.20100000E+01
  1.00800000E+00  1.00800000E+00  1.00800000E+00  1.00800000E+00  1.00800000E+00
  1.00800000E+00  3.20600000E+01  1.60000000E+01  1.20100000E+01  1.20100000E+01
  1.00800000E+00  1.00800000E+00  1.00800000E+00  1.00800000E+00  1.00800000E+00
  1.00800000E+00  3.20600000E+01  1.60000000E+01  1.20100000E+01  1.20100000E+01
  1.00800000E+00  1.00800000E+00  1.00800000E+00  1.00800000E+00  1.00800000E+00
  1.00800000E+00  3.20600000E+01  1.60000000E+01  1.20100000E+01  1.20100000E+01
  1.00800000E+00  1.00800000E+00  1.00800000E+00  1.00800000E+00  1.00800000E+00
  1.00800000E+00  3.20600000E+01  1.60000000E+01  1.20100000E+01  1.20100000E+01
  1.00800000E+00  1.00800000E+00  1.00800000E+00  1.00800000E+00  1.00800000E+00
  1.00800000E+00  3.20600000E+01  1.60000000E+01  1.20100000E+01  1.20100000E+01
  1.00800000E+00  1.00800000E+00  1.00800000E+00  1.00800000E+00  1.00800000E+00
  1.00800000E+00  3.20600000E+01  1.60000000E+01  1.20100000E+01  1.20100000E+01
  1.00800000E+00  1.00800000E+00  1.00800000E+00  1.00800000E+00  1.00800000E+00
  1.00800000E+00  3.20600000E+01  1.60000000E+01  1.20100000E+01  1.20100000E+01
  1.00800000E+00  1.00800000E+00  1.00800000E+00  1.00800000E+00  1.00800000E+00
  1.00800000E+00  3.20600000E+01  1.60000000E+01  1.20100000E+01  1.20100000E+01
  1.00800000E+00  1.00800000E+00  1.00800000E+00  1.00800000E+00  1.00800000E+00
  1.00800000E+00  3.20600000E+01  1.60000000E+01  1.20100000E+01  1.20100000E+01
  1.00800000E+00  1.00800000E+00  1.00800000E+00  1.00800000E+00  1.00800000E+00
  1.00800000E+00  3.20600000E+01  1.60000000E+01  1.20100000E+01  1.20100000E+01
  1.00800000E+00  1.00800000E+00  1.00800000E+00  1.00800000E+00  1.00800000E+00
  1.00800000E+00  3.20600000E+01  1.60000000E+01  1.20100000E+01  1.20100000E+01
  1.00800000E+00  1.00800000E+00  1.00800000E+00  1.00800000E+00  1.00800000E+00
  1.00800000E+00  3.20600000E+01  1.60000000E+01  1.20100000E+01  1.20100000E+01
  1.00800000E+00  1.00800000E+00  1.00800000E+00  1.00800000E+00  1.00800000E+00
  1.00800000E+00  3.20600000E+01  1.60000000E+01  1.20100000E+01  1.20100000E+01
  1.00800000E+00  1.00800000E+00  1.00800000E+00  1.00800000E+00  1.00800000E+00
  1.00800000E+00  3.20600000E+01  1.60000000E+01  1.20100000E+01  1.20100000E+01
  1.00800000E+00  1.00800000E+00  1.00800000E+00  1.00800000E+00  1.00800000E+00
  1.00800000E+00  3.20600000E+01  1.60000000E+01  1.20100000E+01  1.20100000E+01
  1.00800000E+00  1.00800000E+00  1.00800000E+00  1.00800000E+00  1.00800000E+00
  1.00800000E+00  3.20600000E+01  1.60000000E+01  1.20100000E+01  1.20100000E+01
  1.00800000E+00  1.00800000E+00  1.00800000E+00  1.00800000E+00  1.00800000E+00
  1.00800000E+00  3.20600000E+01  1.60000000E+01  1.20100000E+01  1.20100000E+01
  1.00800000E+00  1.00800000E+00  1.00800000E+00  1.00800000E+00  1.00800000E+00
  1.00800000E+00  3.20600000E+01  1.60000000E+01  1.20100000E+01  1.20100000E+01
  1.00800000E+00  1.00800000E+00  1.00800000E+00  1.00800000E+00  1.00800000E+00
  1.00800000E+00  3.20600000E+01  1.60000000E+01  1.20100000E+01  1.20100000E+01
  1.00800000E+00  1.00800000E+00  1.00800000E+00  1.00800000E+00  1.00800000E+00
  1.00800000E+00  3.20600000E+01  1.60000000E+01  1.20100000E+01  1.20100000E+01
  1.00800000E+00  1.00800000E+00  1.00800000E+00  1.00800000E+00  1.00800000E+00
  1.00800000E+00  3.20600000E+01  1.60000000E+01  1.20100000E+01  1.20100000E+01
  1.00800000E+00  1.00800000E+00  1.00800000E+00  1.00800000E+00  1.00800000E+00
  1.00800000E+00  3.20600000E+01  1.60000000E+01  1.20100000E+01  1.20100000E+01
  1.00800000E+00  1.00800000E+00  1.00800000E+00  1.00800000E+00  1.00800000E+00
  1.00800000E+00  3.20600000E+01  1.60000000E+01  1.20100000E+01  1.20100000E+01
  1.00800000E+00  1.00800000E+00  1.00800000E+00  1.00800000E+00  1.00800000E+00
  1.00800000E+00  3.20600000E+01  1.60000000E+01  1.20100000E+01  1.20100000E+01
  1.00800000E+00  1.00800000E+00  1.00800000E+00  1.00800000E+00  1.00800000E+00
  1.00800000E+00  3.20600000E+01  1.60000000E+01  1.20100000E+01  1.20100000E+01
  1.00800000E+00  1.00800000E+00  1.00800000E+00  1.00800000E+00  1.00800000E+00
  1.00800000E+00  3.20600000E+01  1.60000000E+01  1.20100000E+01  1.20100000E+01
  1.00800000E+00  1.00800000E+00  1.00800000E+00  1.00800000E+00  1.00800000E+00
  1.00800000E+00  3.20600000E+01  1.60000000E+01  1.20100000E+01  1.20100000E+01
  1.00800000E+00  1.00800000E+00  1.00800000E+00  1.00800000E+00  1.00800000E+00
  1.00800000E+00  3.20600000E+01  1.60000000E+01  1.20100000E+01  1.20100000E+01
  1.00800000E+00  1.00800000E+00  1.00800000E+00  1.00800000E+00  1.00800000E+00
  1.00800000E+00  3.20600000E+01  1.60000000E+01  1.20100000E+01  1.20100000E+01
  1.00800000E+00  1.00800000E+00  1.00800000E+00  1.00800000E+00  1.00800000E+00
  1.00800000E+00  3.20600000E+01  1.60000000E+01  1.20100000E+01  1.20100000E+01
  1.00800000E+00  1.00800000E+00  1.00800000E+00  1.00800000E+00  1.00800000E+00
  1.00800000E+00  3.20600000E+01  1.60000000E+01  1.20100000E+01  1.20100000E+01
  1.00800000E+00  1.00800000E+00  1.00800000E+00  1.00800000E+00  1.00800000E+00
  1.00800000E+00  3.20600000E+01  1.60000000E+01  1.20100000E+01  1.20100000E+01
  1.00800000E+00  1.00800000E+00  1.00800000E+00  1.00800000E+00  1.00800000E+00
  1.00800000E+00  3.20600000E+01  1.60000000E+01  1.20100000E+01  1.20100000E+01
  1.00800000E+00  1.00800000E+00  1.00800000E+00  1.00800000E+00  1.00800000E+00
  1.00800000E+00  3.20600000E+01  1.60000000E+01  1.20100000E+01  1.20100000E+01
  1.00800000E+00  1.00800000E+00  1.00800000E+00  1.00800000E+00  1.00800000E+00
  1.00800000E+00  3.20600000E+01  1.60000000E+01  1.20100000E+01  1.20100000E+01
  1.00800000E+00  1.00800000E+00  1.00800000E+00  1.00800000E+00  1.00800000E+00
  1.00800000E+00  3.20600000E+01  1.60000000E+01  1.20100000E+01  1.20100000E+01
  1.00800000E+00  1.00800000E+00  1.00800000E+00  1.00800000E+00  1.00800000E+00
  1.00800000E+00  3.20600000E+01  1.60000000E+01  1.20100000E+01  1.20100000E+01
  1.00800000E+00  1.00800000E+00  1.00800000E+00  1.00800000E+00  1.00800000E+00
  1.00800000E+00  3.20600000E+01  1.60000000E+01  1.20100000E+01  1.20100000E+01
  1.00800000E+00  1.00800000E+00  1.00800000E+00  1.00800000E+00  1.00800000E+00
  1.00800000E+00  3.20600000E+01  1.60000000E+01  1.20100000E+01  1.20100000E+01
  1.00800000E+00  1.00800000E+00  1.00800000E+00  1.00800000E+00  1.00800000E+00
  1.00800000E+00  3.20600000E+01  1.60000000E+01  1.20100000E+01  1.20100000E+01
  1.00800000E+00  1.00800000E+00  1.00800000E+00  1.00800000E+00  1.00800000E+00
  1.00800000E+00  3.20600000E+01  1.60000000E+01  1.20100000E+01  1.20100000E+01
  1.00800000E+00  1.00800000E+00  1.00800000E+00  1.00800000E+00  1.00800000E+00
  1.00800000E+00  3.20600000E+01  1.60000000E+01  1.20100000E+01  1.20100000E+01
  1.00800000E+00  1.00800000E+00  1.00800000E+00  1.00800000E+00  1.00800000E+00
  1.00800000E+00  3.20600000E+01  1.60000000E+01  1.20100000E+01  1.20100000E+01
  1.00800000E+00  1.00800000E+00  1.00800000E+00  1.00800000E+00  1.00800000E+00
  1.00800000E+00  3.20600000E+01  1.60000000E+01  1.20100000E+01  1.20100000E+01
  1.00800000E+00  1.00800000E+00  1.00800000E+00  1.00800000E+00  1.00800000E+00
  1.00800000E+00  3.20600000E+01  1.60000000E+01  1.20100000E+01  1.20100000E+01
  1.00800000E+00  1.00800000E+00  1.00800000E+00  1.00800000E+00  1.00800000E+00
  1.00800000E+00  3.20600000E+01  1.60000000E+01  1.20100000E+01  1.20100000E+01
  1.00800000E+00  1.00800000E+00  1.00800000E+00  1.00800000E+00  1.00800000E+00
  1.00800000E+00  3.20600000E+01  1.60000000E+01  1.20100000E+01  1.20100000E+01
  1.00800000E+00  1.00800000E+00  1.00800000E+00  1.00800000E+00  1.00800000E+00
  1.00800000E+00  3.20600000E+01  1.60000000E+01  1.20100000E+01  1.20100000E+01
  1.00800000E+00  1.00800000E+00  1.00800000E+00  1.00800000E+00  1.00800000E+00
  1.00800000E+00  3.20600000E+01  1.60000000E+01  1.20100000E+01  1.20100000E+01
  1.00800000E+00  1.00800000E+00  1.00800000E+00  1.00800000E+00  1.00800000E+00
  1.00800000E+00  3.20600000E+01  1.60000000E+01  1.20100000E+01  1.20100000E+01
  1.00800000E+00  1.00800000E+00  1.00800000E+00  1.00800000E+00  1.00800000E+00
  1.00800000E+00  3.20600000E+01  1.60000000E+01  1.20100000E+01  1.20100000E+01
  1.00800000E+00  1.00800000E+00  1.00800000E+00  1.00800000E+00  1.00800000E+00
  1.00800000E+00  3.20600000E+01  1.60000000E+01  1.20100000E+01  1.20100000E+01
  1.00800000E+00  1.00800000E+00  1.00800000E+00  1.00800000E+00  1.00800000E+00
  1.00800000E+00  3.20600000E+01  1.60000000E+01  1.20100000E+01  1.20100000E+01
  1.00800000E+00  1.00800000E+00  1.00800000E+00  1.00800000E+00  1.00800000E+00
  1.00800000E+00  3.20600000E+01  1.60000000E+01  1.20100000E+01  1.20100000E+01
  1.00800000E+00  1.00800000E+00  1.00800000E+00  1.00800000E+00  1.00800000E+00
  1.00800000E+00  3.20600000E+01  1.60000000E+01  1.20100000E+01  1.20100000E+01
  1.00800000E+00  1.00800000E+00  1.00800000E+00  1.00800000E+00  1.00800000E+00
  1.00800000E+00  3.20600000E+01  1.60000000E+01  1.20100000E+01  1.20100000E+01
  1.00800000E+00  1.00800000E+00  1.00800000E+00  1.00800000E+00  1.00800000E+00
  1.00800000E+00  3.20600000E+01  1.60000000E+01  1.20100000E+01  1.20100000E+01
  1.00800000E+00  1.00800000E+00  1.00800000E+00  1.00800000E+00  1.00800000E+00
  1.00800000E+00  3.20600000E+01  1.60000000E+01  1.20100000E+01  1.20100000E+01
  1.00800000E+00  1.00800000E+00  1.00800000E+00  1.00800000E+00  1.00800000E+00
  1.00800000E+00  3.20600000E+01  1.60000000E+01  1.20100000E+01  1.20100000E+01
  1.00800000E+00  1.00800000E+00  1.00800000E+00  1.00800000E+00  1.00800000E+00
  1.00800000E+00  3.20600000E+01  1.60000000E+01  1.20100000E+01  1.20100000E+01
  1.00800000E+00  1.00800000E+00  1.00800000E+00  1.00800000E+00  1.00800000E+00
  1.00800000E+00  3.20600000E+01  1.60000000E+01  1.20100000E+01  1.20100000E+01
  1.00800000E+00  1.00800000E+00  1.00800000E+00  1.00800000E+00  1.00800000E+00
  1.00800000E+00  3.20600000E+01  1.60000000E+01  1.20100000E+01  1.20100000E+01
  1.00800000E+00  1.00800000E+00  1.00800000E+00  1.00800000E+00  1.00800000E+00
  1.00800000E+00  3.20600000E+01  1.60000000E+01  1.20100000E+01  1.20100000E+01
  1.00800000E+00  1.00800000E+00  1.00800000E+00  1.00800000E+00  1.00800000E+00
  1.00800000E+00  3.20600000E+01  1.60000000E+01  1.20100000E+01  1.20100000E+01
  1.00800000E+00  1.00800000E+00  1.00800000E+00  1.00800000E+00  1.00800000E+00
  1.00800000E+00  3.20600000E+01  1.60000000E+01  1.20100000E+01  1.20100000E+01
  1.00800000E+00  1.00800000E+00  1.00800000E+00  1.00800000E+00  1.00800000E+00
  1.00800000E+00  3.20600000E+01  1.60000000E+01  1.20100000E+01  1.20100000E+01
  1.00800000E+00  1.00800000E+00  1.00800000E+00  1.00800000E+00  1.00800000E+00
  1.00800000E+00  3.20600000E+01  1.60000000E+01  1.20100000E+01  1.20100000E+01
  1.00800000E+00  1.00800000E+00  1.00800000E+00  1.00800000E+00  1.00800000E+00
  1.00800000E+00  3.20600000E+01  1.60000000E+01  1.20100000E+01  1.20100000E+01
  1.00800000E+00  1.00800000E+00  1.00800000E+00  1.00800000E+00  1.00800000E+00
  1.00800000E+00  3.20600000E+01  1.60000000E+01  1.20100000E+01  1.20100000E+01
  1.00800000E+00  1.00800000E+00  1.00800000E+00  1.00800000E+00  1.00800000E+00
  1.00800000E+00  3.20600000E+01  1.60000000E+01  1.20100000E+01  1.20100000E+01
  1.00800000E+00  1.00800000E+00  1.00800000E+00  1.00800000E+00  1.00800000E+00
  1.00800000E+00  3.20600000E+01  1.60000000E+01  1.20100000E+01  1.20100000E+01
  1.00800000E+00  1.00800000E+00  1.00800000E+00  1.00800000E+00  1.00800000E+00
  1.00800000E+00  3.20600000E+01  1.60000000E+01  1.20100000E+01  1.20100000E+01
  1.00800000E+00  1.00800000E+00  1.00800000E+00  1.00800000E+00  1.00800000E+00
  1.00800000E+00  3.20600000E+01  1.60000000E+01  1.20100000E+01  1.20100000E+01
  1.00800000E+00  1.00800000E+00  1.00800000E+00  1.00800000E+00  1.00800000E+00
  1.00800000E+00  3.20600000E+01  1.60000000E+01  1.20100000E+01  1.20100000E+01
  1.00800000E+00  1.00800000E+00  1.00800000E+00  1.00800000E+00  1.00800000E+00
  1.00800000E+00  3.20600000E+01  1.60000000E+01  1.20100000E+01  1.20100000E+01
  1.00800000E+00  1.00800000E+00  1.00800000E+00  1.00800000E+00  1.00800000E+00
  1.00800000E+00  3.20600000E+01  1.60000000E+01  1.20100000E+01  1.20100000E+01
  1.00800000E+00  1.00800000E+00  1.00800000E+00  1.00800000E+00  1.00800000E+00
  1.00800000E+00  3.20600000E+01  1.60000000E+01  1.20100000E+01  1.20100000E+01
  1.00800000E+00  1.00800000E+00  1.00800000E+00  1.00800000E+00  1.00800000E+00
  1.00800000E+00  3.20600000E+01  1.60000000E+01  1.20100000E+01  1.20100000E+01
  1.00800000E+00  1.00800000E+00  1.00800000E+00  1.00800000E+00  1.00800000E+00
  1.00800000E+00  3.20600000E+01  1.60000000E+01  1.20100000E+01  1.20100000E+01
  1.00800000E+00  1.00800000E+00  1.00800000E+00  1.00800000E+00  1.00800000E+00
  1.00800000E+00
%FLAG ATOM_TYPE_INDEX                                                           
%FORMAT(10I8)                                                                   
       1       1       2       2       3       3       3       3       3       3
       3       3       3       3       3       3       3       3       3       3
       3       3       3       3       4       4       5       5       4       4
       4       4       4       4       4       4       6       1       7       7
       8       8       8       8       8       8       6       1       7       7
       8       8       8       8       8       8       6       1       7       7
       8       8       8       8       8       8       6       1       7       7
       8       8       8       8       8       8       6       1       7       7
       8       8       8       8       8       8       6       1       7       7
       8       8       8       8       8       8       6       1       7       7
       8       8       8       8       8       8       6       1       7       7
       8       8       8       8       8       8       6       1       7       7
       8       8       8       8       8       8       6       1       7       7
       8       8       8       8       8       8       6       1       7       7
       8       8       8       8       8       8       6       1       7       7
       8       8       8       8       8       8       6       1       7       7
       8       8       8       8       8       8       6       1       7       7
       8       8       8       8       8       8       6       1       7       7
       8       8       8       8       8       8       6       1       7       7
       8       8       8       8       8       8       6       1       7       7
       8       8       8       8       8       8       6       1       7       7
       8       8       8       8       8       8       6       1       7       7
       8       8       8       8       8       8       6       1       7       7
       8       8       8       8       8       8       6       1       7       7
       8       8       8       8       8       8       6       1       7       7
       8       8       8       8       8       8       6       1       7       7
       8       8       8       8       8       8       6       1       7       7
       8       8       8       8       8       8       6       1       7       7
       8       8       8       8       8       8       6       1       7       7
       8       8       8       8       8       8       6       1       7       7
       8       8       8       8       8       8       6       1       7       7
       8       8       8       8       8       8       6       1       7       7
       8       8       8       8       8       8       6       1       7       7
       8       8       8       8       8       8       6       1       7       7
       8       8       8       8       8       8       6       1       7       7
       8       8       8       8       8       8       6       1       7       7
       8       8       8       8       8       8       6       1       7       7
       8       8       8       8       8       8       6       1       7       7
       8       8       8       8       8       8       6       1       7       7
       8       8       8       8       8       8       6       1       7       7
       8       8       8       8       8       8       6       1       7       7
       8       8       8       8       8       8       6       1       7       7
       8       8       8       8       8       8       6       1       7       7
       8       8       8       8       8       8       6       1       7       7
       8       8       8       8       8       8       6       1       7       7
       8       8       8       8       8       8       6       1       7       7
       8       8       8       8       8       8       6       1       7       7
       8       8       8       8       8       8       6       1       7       7
       8       8       8       8       8       8       6       1       7       7
       8       8       8       8       8       8       6       1       7       7
       8       8       8       8       8       8       6       1       7       7
       8       8       8       8       8       8       6       1       7       7
       8       8       8       8       8       8       6       1       7       7
       8       8       8       8       8       8       6       1       7       7
       8       8       8       8       8       8       6       1       7       7
       8       8       8       8       8       8       6       1       7       7
       8       8       8       8       8       8       6       1       7       7
       8       8       8       8       8       8       6       1       7       7
       8       8       8       8       8       8       6       1       7       7
       8       8       8       8       8       8       6       1       7       7
       8       8       8       8       8       8       6       1       7       7
       8       8       8       8       8       8       6       1       7       7
       8       8       8       8       8       8       6       1       7       7
       8       8       8       8       8       8       6       1       7       7
       8       8       8       8       8       8       6       1       7       7
       8       8       8       8       8       8       6       1       7       7
       8       8       8       8       8       8       6       1       7       7
       8       8       8       8       8       8       6       1       7       7
       8       8       8       8       8       8       6       1       7       7
       8       8       8       8       8       8       6       1       7       7
       8       8       8       8       8       8       6       1       7       7
       8       8       8       8       8       8       6       1       7       7
       8       8       8       8       8       8       6       1       7       7
       8       8       8       8       8       8       6       1       7       7
       8       8       8       8       8       8       6       1       7       7
       8       8       8       8       8       8       6       1       7       7
       8       8       8       8       8       8       6       1       7       7
       8       8       8       8       8       8       6       1       7       7
       8       8       8       8       8       8       6       1       7       7
       8       8       8       8       8       8       6       1       7       7
       8       8       8       8       8       8       6       1       7       7
       8       8       8       8       8       8       6       1       7       7
       8       8       8       8       8       8       6       1       7       7
       8       8       8       8       8       8       6       1       7       7
       8       8       8       8       8       8       6       1       7       7
       8       8       8       8       8       8       6       1       7       7
       8       8       8       8       8       8       6       1       7       7
       8       8       8       8       8       8       6       1       7       7
       8       8       8       8       8       8       6       1       7       7
       8       8       8       8       8       8       6       1       7       7
       8       8       8       8       8       8       6       1       7       7
       8       8       8       8       8       8       6       1       7       7
       8       8       8       8       8       8       6       1       7       7
       8       8       8       8       8       8       6       1       7       7
       8       8       8       8       8       8       6       1       7       7
       8       8       8       8       8       8       6       1       7       7
       8       8       8       8       8       8       6       1       7       7
       8       8       8       8       8       8       6       1       7       7
       8       8       8       8       8       8       6       1       7       7
       8       8       8       8       8       8       6       1       7       7
       8       8       8       8       8       8       6       1       7       7
       8       8       8       8       8       8       6       1       7       7
       8       8       8       8       8       8       6       1       7       7
       8       8       8       8       8       8       6       1       7       7
       8       8       8       8       8       8       6       1       7       7
       8       8       8       8       8       8       6       1       7       7
       8       8       8       8       8       8       6       1       7       7
       8       8       8       8       8       8       6       1       7       7
       8       8       8       8       8       8       6       1       7       7
       8       8       8       8       8       8       6       1       7       7
       8       8       8       8       8       8       6       1       7       7
       8       8       8       8       8       8       6       1       7       7
       8       8       8       8       8       8       6       1       7       7
       8       8       8       8       8       8       6       1       7       7
       8       8       8       8       8       8       6       1       7       7
       8       8       8       8       8       8       6       1       7       7
       8       8       8       8       8       8       6       1       7       7
       8       8       8       8       8       8       6       1       7       7
       8       8       8       8       8       8       6       1       7       7
       8       8       8       8       8       8       6       1       7       7
       8       8       8       8       8       8       6       1       7       7
       8       8       8       8       8       8       6       1       7       7
       8       8       8       8       8       8       6       1       7       7
       8       8       8       8       8       8       6       1       7       7
       8       8       8       8       8       8       6       1       7       7
       8       8       8       8       8       8       6       1       7       7
       8       8       8       8       8       8       6       1       7       7
       8       8       8       8       8       8       6       1       7       7
       8       8       8       8       8       8       6       1       7       7
       8       8       8       8       8       8       6       1       7       7
       8       8       8       8       8       8       6       1       7       7
       8       8       8       8       8       8       6       1       7       7
       8       8       8       8       8       8       6       1       7       7
       8       8       8       8       8       8       6       1       7       7
       8       8       8       8       8       8       6       1       7       7
       8       8       8       8       8       8       6       1       7       7
       8       8       8       8       8       8       6       1       7       7
       8       8       8       8       8       8       6       1       7       7
       8       8       8       8       8       8       6       1       7       7
       8       8       8       8       8       8       6       1       7       7
       8       8       8       8       8       8       6       1       7       7
       8       8       8       8       8       8       6       1       7       7
       8       8       8       8       8       8       6       1       7       7
       8       8       8       8       8       8       6       1       7       7
       8       8       8       8       8       8       6       1       7       7
       8       8       8       8       8       8       6       1       7       7
       8       8       8       8       8       8       6       1       7       7
       8       8       8       8       8       8       6       1       7       7
       8       8       8       8       8       8       6       1       7       7
       8       8       8       8       8       8       6       1       7       7
       8       8       8       8       8       8       6       1       7       7
       8       8       8       8       8       8       6       1       7       7
       8       8       8       8       8       8       6       1       7       7
       8       8       8       8       8       8       6       1       7       7
       8       8       8       8       8       8       6       1       7       7
       8       8       8       8       8       8       6       1       7       7
       8       8       8       8       8       8       6       1       7       7
       8       8       8       8       8       8       6       1       7       7
       8       8       8       8       8       8       6       1       7       7
       8       8       8       8       8       8       6       1       7       7
       8       8       8       8       8       8       6       1       7       7
       8       8       8       8       8       8       6       1       7       7
       8       8       8       8       8       8       6       1       7       7
       8       8       8       8       8       8       6       1       7       7
       8       8       8       8       8       8       6       1       7       7
       8       8       8       8       8       8       6       1       7       7
       8       8       8       8       8       8       6       1       7       7
       8       8       8       8       8       8       6       1       7       7
       8       8       8       8       8       8       6       1       7       7
       8       8       8       8       8       8       6       1       7       7
       8       8       8       8       8       8       6       1       7       7
       8       8       8       8       8       8       6       1       7       7
       8       8       8       8       8       8       6       1       7       7
       8       8       8       8       8       8       6       1       7       7
       8       8       8       8       8       8       6       1       7       7
       8       8       8       8       8       8       6       1       7       7
       8       8       8       8       8       8       6       1       7       7
       8       8       8       8       8       8       6       1       7       7
       8       8       8       8       8       8       6       1       7       7
       8       8       8       8       8       8       6       1       7       7
       8       8       8       8       8       8       6       1       7       7
       8       8       8       8       8       8       6       1       7       7
       8       8       8       8       8       8       6       1       7       7
       8       8       8       8       8       8       6       1       7       7
       8       8       8       8       8       8       6       1       7       7
       8       8       8       8       8       8       6       1       7       7
       8       8       8       8       8       8       6       1       7       7
       8       8       8       8       8       8       6       1       7       7
       8       8       8       8       8       8       6       1       7       7
       8       8       8       8       8       8       6       1       7       7
       8       8       8       8       8       8       6       1       7       7
       8       8       8       8       8       8       6       1       7       7
       8       8       8       8       8       8       6       1       7       7
       8       8       8       8       8       8       6       1       7       7
       8       8       8       8       8       8       6       1       7       7
       8       8       8       8       8       8       6       1       7       7
       8       8       8       8       8       8       6       1       7       7
       8       8       8       8       8       8       6       1       7       7
       8       8       8       8       8       8       6       1       7       7
       8       8       8       8       8       8       6       1       7       7
       8       8       8       8       8       8       6       1       7       7
       8       8       8       8       8       8       6       1       7       7
       8       8       8       8       8       8       6       1       7       7
       8       8       8       8       8       8       6       1       7       7
       8       8       8       8       8       8       6       1       7       7
       8       8       8       8       8       8       6       1       7       7
       8       8       8       8       8       8       6       1       7       7
       8       8       8       8       8       8       6       1       7       7
       8       8       8       8       8       8       6       1       7       7
       8       8       8       8       8       8       6       1       7       7
       8       8       8       8       8       8       6       1       7       7
       8       8       8       8       8       8       6       1       7       7
       8       8       8       8       8       8       6       1       7       7
       8       8       8       8       8       8       6       1       7       7
       8       8       8       8       8       8       6       1       7       7
       8       8       8       8       8       8       6       1       7       7
       8       8       8       8       8       8       6       1       7       7
       8       8       8       8       8       8       6       1       7       7
       8       8       8       8       8       8       6       1       7       7
       8       8       8       8       8       8       6       1       7       7
       8       8       8       8       8       8       6       1       7       7
       8       8       8       8       8       8       6       1       7       7
       8       8       8       8       8       8       6       1       7       7
       8       8       8       8       8       8       6       1       7       7
       8       8       8       8       8       8       6       1       7       7
       8       8       8       8       8       8       6       1       7       7
       8       8       8       8       8       8       6       1       7       7
       8       8       8       8       8       8       6       1       7       7
       8       8       8       8       8       8       6       1       7       7
       8       8       8       8       8       8       6       1       7       7
       8       8       8       8       8       8       6       1       7       7
       8       8       8       8       8       8       6       1       7       7
       8       8       8       8       8       8       6       1       7       7
       8       8       8       8       8       8       6       1       7       7
       8       8       8       8       8       8       6       1       7       7
       8       8       8       8       8       8       6       1       7       7
       8       8       8       8       8       8       6       1       7       7
       8       8       8       8       8       8       6       1       7       7
       8       8       8       8       8       8       6       1       7       7
       8       8       8       8       8       8       6       1       7       7
       8       8       8       8       8       8       6       1       7       7
       8       8       8       8       8       8       6       1       7       7
       8       8       8       8       8       8       6       1       7       7
       8       8       8       8       8       8       6       1       7       7
       8       8       8       8       8       8       6       1       7       7
       8       8       8       8       8       8       6       1       7       7
       8       8       8       8       8       8       6       1       7       7
       8       8       8       8       8       8       6       1       7       7
       8       8       8       8       8       8       6       1       7       7
       8       8       8       8       8       8       6       1       7       7
       8       8       8       8       8       8       6       1       7       7
       8       8       8       8       8       8       6       1       7       7
       8       8       8       8       8       8       6       1       7       7
       8       8       8       8       8       8       6       1       7       7
       8       8       8       8       8       8       6       1       7       7
       8       8       8       8       8       8       6       1       7       7
       8       8       8       8       8       8       6       1       7       7
       8       8       8       8       8       8       6       1       7       7
       8       8       8       8       8       8       6       1       7       7
       8       8       8       8       8       8       6       1       7       7
       8       8       8       8       8       8       6       1       7       7
       8       8       8       8       8       8       6       1       7       7
       8       8       8       8       8       8       6       1       7       7
       8       8       8       8       8       8       6       1       7       7
       8       8       8       8       8       8       6       1       7       7
       8       8       8       8       8       8       6       1       7       7
       8       8       8       8       8       8       6       1       7       7
       8       8       8       8       8       8       6       1       7       7
       8       8       8       8       8       8       6       1       7       7
       8       8       8       8       8       8       6       1       7       7
       8       8       8       8       8       8       6       1       7       7
       8       8       8       8       8       8       6       1       7       7
       8       8       8       8       8       8       6       1       7       7
       8       8       8       8       8       8       6       1       7       7
       8       8       8       8       8       8       6       1       7       7
       8       8       8       8       8       8       6       1       7       7
       8       8       8       8       8       8       6       1       7       7
       8       8       8       8       8       8       6       1       7       7
       8       8       8       8       8       8       6       1       7       7
       8       8       8       8       8       8       6       1       7       7
       8       8       8       8       8       8       6       1       7       7
       8       8       8       8       8       8       6       1       7       7
       8       8       8       8       8       8       6       1       7       7
       8       8       8       8       8       8       6       1       7       7
       8       8       8       8       8       8       6       1       7       7
       8       8       8       8       8       8       6       1       7       7
       8       8       8       8       8       8       6       1       7       7
       8       8       8       8       8       8       6       1       7       7
       8       8       8       8       8       8       6       1       7       7
       8       8       8       8       8       8       6       1       7       7
       8       8       8       8       8       8       6       1       7       7
       8       8       8       8       8       8       6       1       7       7
       8       8       8       8       8       8       6       1       7       7
       8       8       8       8       8       8       6       1       7       7
       8       8       8       8       8       8       6       1       7       7
       8       8       8       8       8       8       6       1       7       7
       8       8       8       8       8       8       6       1       7       7
       8       8       8       8       8       8       6       1       7       7
       8       8       8       8       8       8       6       1       7       7
       8       8       8       8       8       8       6       1       7       7
       8       8       8       8       8       8       6       1       7       7
       8       8       8       8       8       8       6       1       7       7
       8       8       8       8       8       8       6       1       7       7
       8       8       8       8       8       8       6       1       7       7
       8       8       8       8       8       8       6       1       7       7
       8       8       8       8       8       8       6       1       7       7
       8       8       8       8       8       8       6       1       7       7
       8       8       8       8       8       8       6       1       7       7
       8       8       8       8       8       8       6       1       7       7
       8       8       8       8       8       8       6       1       7       7
       8       8       8       8       8       8       6       1       7       7
       8       8       8       8       8       8       6       1       7       7
       8       8       8       8       8       8       6       1       7       7
       8       8       8       8       8       8       6       1       7       7
       8       8       8       8       8       8       6       1       7       7
       8       8       8       8       8       8       6       1       7       7
       8       8       8       8       8       8       6       1       7       7
       8       8       8       8       8       8       6       1       7       7
       8       8       8       8       8       8       6       1       7       7
       8       8       8       8       8       8       6       1       7       7
       8       8       8       8       8       8       6       1       7       7
       8       8       8       8       8       8       6       1       7       7
       8       8       8       8       8       8       6       1       7       7
       8       8       8       8       8       8       6       1       7       7
       8       8       8       8       8       8       6       1       7       7
       8       8       8       8       8       8       6       1       7       7
       8       8       8       8       8       8       6       1       7       7
       8       8       8       8       8       8       6       1       7       7
       8       8       8       8       8       8       6       1       7       7
       8       8       8       8       8       8       6       1       7       7
       8       8       8       8       8       8       6       1       7       7
       8       8       8       8       8       8       6       1       7       7
       8       8       8       8       8       8       6       1       7       7
       8       8       8       8       8       8       6       1       7       7
       8       8       8       8       8       8       6       1       7       7
       8       8       8       8       8       8       6       1       7       7
       8       8       8       8       8       8       6       1       7       7
       8       8       8       8       8       8       6       1       7       7
       8       8       8       8       8       8       6       1       7       7
       8       8       8       8       8       8       6       1       7       7
       8       8       8       8       8       8       6       1       7       7
       8       8       8       8       8       8       6       1       7       7
       8       8       8       8       8       8       6       1       7       7
       8       8       8       8       8       8
%FLAG NUMBER_EXCLUDED_ATOMS                                                     
%FORMAT(10I8)                                                                   
       7       7      14      14      12      11      11      10       7       6
      10      10       9       9       5       5       6       6       6       6
       5       5       4       4       1       1       1       1       1       1
       1       1       1       1       1       1       9       8       7       6
       2       1       1       2       1       1       9       8       7       6
       2       1       1       2       1       1       9       8       7       6
       2       1       1       2       1       1       9       8       7       6
       2       1       1       2       1       1       9       8       7       6
       2       1       1       2       1       1       9       8       7       6
       2       1       1       2       1       1       9       8       7       6
       2       1       1       2       1       1       9       8       7       6
       2       1       1       2       1       1       9       8       7       6
       2       1       1       2       1       1       9       8       7       6
       2       1       1       2       1       1       9       8       7       6
       2       1       1       2       1       1       9       8       7       6
       2       1       1       2       1       1       9       8       7       6
       2       1       1       2       1       1       9       8       7       6
       2       1       1       2       1       1       9       8       7       6
       2       1       1       2       1       1       9       8       7       6
       2       1       1       2       1       1       9       8       7       6
       2       1       1       2       1       1       9       8       7       6
       2       1       1       2       1       1       9       8       7       6
       2       1       1       2       1       1       9       8       7       6
       2       1       1       2       1       1       9       8       7       6
       2       1       1       2       1       1       9       8       7       6
       2       1       1       2       1       1       9       8       7       6
       2       1       1       2       1       1       9       8       7       6
       2       1       1       2       1       1       9       8       7       6
       2       1       1       2       1       1       9       8       7       6
       2       1       1       2       1       1       9       8       7       6
       2       1       1       2       1       1       9       8       7       6
       2       1       1       2       1       1       9       8       7       6
       2       1       1       2       1       1       9       8       7       6
       2       1       1       2       1       1       9       8       7       6
       2       1       1       2       1       1       9       8       7       6
       2       1       1       2       1       1       9       8       7       6
       2       1       1       2       1       1       9       8       7       6
       2       1       1       2       1       1       9       8       7       6
       2       1       1       2       1       1       9       8       7       6
       2       1       1       2       1       1       9       8       7       6
       2       1       1       2       1       1       9       8       7       6
       2       1       1       2       1       1       9       8       7       6
       2       1       1       2       1       1       9       8       7       6
       2       1       1       2       1       1       9       8       7       6
       2       1       1       2       1       1       9       8       7       6
       2       1       1       2       1       1       9       8       7       6
       2       1       1       2       1       1       9       8       7       6
       2       1       1       2       1       1       9       8       7       6
       2       1       1       2       1       1       9       8       7       6
       2       1       1       2       1       1       9       8       7       6
       2       1       1       2       1       1       9       8       7       6
       2       1       1       2       1       1       9       8       7       6
       2       1       1       2       1       1       9       8       7       6
       2       1       1       2       1       1       9       8       7       6
       2       1       1       2       1       1       9       8       7       6
       2       1       1       2       1       1       9       8       7       6
       2       1       1       2       1       1       9       8       7       6
       2       1       1       2       1       1       9       8       7       6
       2       1       1       2       1       1       9       8       7       6
       2       1       1       2       1       1       9       8       7       6
       2       1       1       2       1       1       9       8       7       6
       2       1       1       2       1       1       9       8       7       6
       2       1       1       2       1       1       9       8       7       6
       2       1       1       2       1       1       9       8       7       6
       2       1       1       2       1       1       9       8       7       6
       2       1       1       2       1       1       9       8       7       6
       2       1       1       2       1       1       9       8       7       6
       2       1       1       2       1       1       9       8       7       6
       2       1       1       2       1       1       9       8       7       6
       2       1       1       2       1       1       9       8       7       6
       2       1       1       2       1       1       9       8       7       6
       2       1       1       2       1       1       9       8       7       6
       2       1       1       2       1       1       9       8       7       6
       2       1       1       2       1       1       9       8       7       6
       2       1       1       2       1       1       9       8       7       6
       2       1       1       2       1       1       9       8       7       6
       2       1       1       2       1       1       9       8       7       6
       2       1       1       2       1       1       9       8       7       6
       2       1       1       2       1       1       9       8       7       6
       2       1       1       2       1       1       9       8       7       6
       2       1       1       2       1       1       9       8       7       6
       2       1       1       2       1       1       9       8       7       6
       2       1       1       2       1       1       9       8       7       6
       2       1       1       2       1       1       9       8       7       6
       2       1       1       2       1       1       9       8       7       6
       2       1       1       2       1       1       9       8       7       6
       2       1       1       2       1       1       9       8       7       6
       2       1       1       2       1       1       9       8       7       6
       2       1       1       2       1       1       9       8       7       6
       2       1       1       2       1       1       9       8       7       6
       2       1       1       2       1       1       9       8       7       6
       2       1       1       2       1       1       9       8       7       6
       2       1       1       2       1       1       9       8       7       6
       2       1       1       2       1       1       9       8       7       6
       2       1       1       2       1       1       9       8       7       6
       2       1       1       2       1       1       9       8       7       6
       2       1       1       2       1       1       9       8       7       6
       2       1       1       2       1       1       9       8       7       6
       2       1       1       2       1       1       9       8       7       6
       2       1       1       2       1       1       9       8       7       6
       2       1       1       2       1       1       9       8       7       6
       2       1       1       2       1       1       9       8       7       6
       2       1       1       2       1       1       9       8       7       6
       2       1       1       2       1       1       9       8       7       6
       2       1       1       2       1       1       9       8       7       6
       2       1       1       2       1       1       9       8       7       6
       2       1       1       2       1       1       9       8       7       6
       2       1       1       2       1       1       9       8       7       6
       2       1       1       2       1       1       9       8       7       6
       2       1       1       2       1       1       9       8       7       6
       2       1       1       2       1       1       9       8       7       6
       2       1       1       2       1       1       9       8       7       6
       2       1       1       2       1       1       9       8       7       6
       2       1       1       2       1       1       9       8       7       6
       2       1       1       2       1       1       9       8       7       6
       2       1       1       2       1       1       9       8       7       6
       2       1       1       2       1       1       9       8       7       6
       2       1       1       2       1       1       9       8       7       6
       2       1       1       2       1       1       9       8       7       6
       2       1       1       2       1       1       9       8       7       6
       2       1       1       2       1       1       9       8       7       6
       2       1       1       2       1       1       9       8       7       6
       2       1       1       2       1       1       9       8       7       6
       2       1       1       2       1       1       9       8       7       6
       2       1       1       2       1       1       9       8       7       6
       2       1       1       2       1       1       9       8       7       6
       2       1       1       2       1       1       9       8       7       6
       2       1       1       2       1       1       9       8       7       6
       2       1       1       2       1       1       9       8       7       6
       2       1       1       2       1       1       9       8       7       6
       2       1       1       2       1       1       9       8       7       6
       2       1       1       2       1       1       9       8       7       6
       2       1       1       2       1       1       9       8       7       6
       2       1       1       2       1       1       9       8       7       6
       2       1       1       2       1       1       9       8       7       6
       2       1       1       2       1       1       9       8       7       6
       2       1       1       2       1       1       9       8       7       6
       2       1       1       2       1       1       9       8       7       6
       2       1       1       2       1       1       9       8       7       6
       2       1       1       2       1       1       9       8       7       6
       2       1       1       2       1       1       9       8       7       6
       2       1       1       2       1       1       9       8       7       6
       2       1       1       2       1       1       9       8       7       6
       2       1       1       2       1       1       9       8       7       6
       2       1       1       2       1       1       9       8       7       6
       2       1       1       2       1       1       9       8       7       6
       2       1       1       2       1       1       9       8       7       6
       2       1       1       2       1       1       9       8       7       6
       2       1       1       2       1       1       9       8       7       6
       2       1       1       2       1       1       9       8       7       6
       2       1       1       2       1       1       9       8       7       6
       2       1       1       2       1       1       9       8       7       6
       2       1       1       2       1       1       9       8       7       6
       2       1       1       2       1       1       9       8       7       6
       2       1       1       2       1       1       9       8       7       6
       2       1       1       2       1       1       9       8       7       6
       2       1       1       2       1       1       9       8       7       6
       2       1       1       2       1       1       9       8       7       6
       2       1       1       2       1       1       9       8       7       6
       2       1       1       2       1       1       9       8       7       6
       2       1       1       2       1       1       9       8       7       6
       2       1       1       2       1       1       9       8       7       6
       2       1       1       2       1       1       9       8       7       6
       2       1       1       2       1       1       9       8       7       6
       2       1       1       2       1       1       9       8       7       6
       2       1       1       2       1       1       9       8       7       6
       2       1       1       2       1       1       9       8       7       6
       2       1       1       2       1       1       9       8       7       6
       2       1       1       2       1       1       9       8       7       6
       2       1       1       2       1       1       9       8       7       6
       2       1       1       2       1       1       9       8       7       6
       2       1       1       2       1       1       9       8       7       6
       2       1       1       2       1       1       9       8       7       6
       2       1       1       2       1       1       9       8       7       6
       2       1       1       2       1       1       9       8       7       6
       2       1       1       2       1       1       9       8       7       6
       2       1       1       2       1       1       9       8       7       6
       2       1       1       2       1       1       9       8       7       6
       2       1       1       2       1       1       9       8       7       6
       2       1       1       2       1       1       9       8       7       6
       2       1       1       2       1       1       9       8       7       6
       2       1       1       2       1       1       9       8       7       6
       2       1       1       2       1       1       9       8       7       6
       2       1       1       2       1       1       9       8       7       6
       2       1       1       2       1       1       9       8       7       6
       2       1       1       2       1       1       9       8       7       6
       2       1       1       2       1       1       9       8       7       6
       2       1       1       2       1       1       9       8       7       6
       2       1       1       2       1       1       9       8       7       6
       2       1       1       2       1       1       9       8       7       6
       2       1       1       2       1       1       9       8       7       6
       2       1       1       2       1       1       9       8       7       6
       2       1       1       2       1       1       9       8       7       6
       2       1       1       2       1       1       9       8       7       6
       2       1       1       2       1       1       9       8       7       6
       2       1       1       2       1       1       9       8       7       6
       2       1       1       2       1       1       9       8       7       6
       2       1       1       2       1       1       9       8       7       6
       2       1       1       2       1       1       9       8       7       6
       2       1       1       2       1       1       9       8       7       6
       2       1       1       2       1       1       9       8       7       6
       2       1       1       2       1       1       9       8       7       6
       2       1       1       2       1       1       9       8       7       6
       2       1       1       2       1       1       9       8       7       6
       2       1       1       2       1       1       9       8       7       6
       2       1       1       2       1       1       9       8       7       6
       2       1       1       2       1       1       9       8       7       6
       2       1       1       2       1       1       9       8       7       6
       2       1       1       2       1       1       9       8       7       6
       2       1       1       2       1       1       9       8       7       6
       2       1       1       2       1       1       9       8       7       6
       2       1       1       2       1       1       9       8       7       6
       2       1       1       2       1       1       9       8       7       6
       2       1       1       2       1       1       9       8       7       6
       2       1       1       2       1       1       9       8       7       6
       2       1       1       2       1       1       9       8       7       6
       2       1       1       2       1       1       9       8       7       6
       2       1       1       2       1       1       9       8       7       6
       2       1       1       2       1       1       9       8       7       6
       2       1       1       2       1       1       9       8       7       6
       2       1       1       2       1       1       9       8       7       6
       2       1       1       2       1       1       9       8       7       6
       2       1       1       2       1       1       9       8       7       6
       2       1       1       2       1       1       9       8       7       6
       2       1       1       2       1       1       9       8       7       6
       2       1       1       2       1       1       9       8       7       6
       2       1       1       2       1       1       9       8       7       6
       2       1       1       2       1       1       9       8       7       6
       2       1       1       2       1       1       9       8       7       6
       2       1       1       2       1       1       9       8       7       6
       2       1       1       2       1       1       9       8       7       6
       2       1       1       2       1       1       9       8       7       6
       2       1       1       2       1       1       9       8       7       6
       2       1       1       2       1       1       9       8       7       6
       2       1       1       2       1       1       9       8       7       6
       2       1       1       2       1       1       9       8       7       6
       2       1       1       2       1       1       9       8       7       6
       2       1       1       2       1       1       9       8       7       6
       2       1       1       2       1       1       9       8       7       6
       2       1       1       2       1       1       9       8       7       6
       2       1       1       2       1       1       9       8       7       6
       2       1       1       2       1       1       9       8       7       6
       2       1       1       2       1       1       9       8       7       6
       2       1       1       2       1       1       9       8       7       6
       2       1       1       2       1       1       9       8       7       6
       2       1       1       2       1       1       9       8       7       6
       2       1       1       2       1       1       9       8       7       6
       2       1       1       2       1       1       9       8       7       6
       2       1       1       2       1       1       9       8       7       6
       2       1       1       2       1       1       9       8       7       6
       2       1       1       2       1       1       9       8       7       6
       2       1       1       2       1       1       9       8       7       6
       2       1       1       2       1       1       9       8       7       6
       2       1       1       2       1       1       9       8       7       6
       2       1       1       2       1       1       9       8       7       6
       2       1       1       2       1       1       9       8       7       6
       2       1       1       2       1       1       9       8       7       6
       2       1       1       2       1       1       9       8       7       6
       2       1       1       2       1       1       9       8       7       6
       2       1       1       2       1       1       9       8       7       6
       2       1       1       2       1       1       9       8       7       6
       2       1       1       2       1       1       9       8       7       6
       2       1       1       2       1       1       9       8       7       6
       2       1       1       2       1       1       9       8       7       6
       2       1       1       2       1       1       9       8       7       6
       2       1       1       2       1       1       9       8       7       6
       2       1       1       2       1       1       9       8       7       6
       2       1       1       2       1       1       9       8       7       6
       2       1       1       2       1       1       9       8       7       6
       2       1       1       2       1       1       9       8       7       6
       2       1       1       2       1       1       9       8       7       6
       2       1       1       2       1       1       9       8       7       6
       2       1       1       2       1       1       9       8       7       6
       2       1       1       2       1       1       9       8       7       6
       2       1       1       2       1       1       9       8       7       6
       2       1       1       2       1       1       9       8       7       6
       2       1       1       2       1       1       9       8       7       6
       2       1       1       2       1       1       9       8       7       6
       2       1       1       2       1       1       9       8       7       6
       2       1       1       2       1       1       9       8       7       6
       2       1       1       2       1       1       9       8       7       6
       2       1       1       2       1       1       9       8       7       6
       2       1       1       2       1       1       9       8       7       6
       2       1       1       2       1       1       9       8       7       6
       2       1       1       2       1       1       9       8       7       6
       2       1       1       2       1       1       9       8       7       6
       2       1       1       2       1       1       9       8       7       6
       2       1       1       2       1       1       9       8       7       6
       2       1       1       2       1       1       9       8       7       6
       2       1       1       2       1       1       9       8       7       6
       2       1       1       2       1       1       9       8       7       6
       2       1       1       2       1       1       9       8       7       6
       2       1       1       2       1       1       9       8       7       6
       2       1       1       2       1       1       9       8       7       6
       2       1       1       2       1       1       9       8       7       6
       2       1       1       2       1       1       9       8       7       6
       2       1       1       2       1       1       9       8       7       6
       2       1       1       2       1       1       9       8       7       6
       2       1       1       2       1       1       9       8       7       6
       2       1       1       2       1       1       9       8       7       6
       2       1       1       2       1       1       9       8       7       6
       2       1       1       2       1       1       9       8       7       6
       2       1       1       2       1       1       9       8       7       6
       2       1       1       2       1       1       9       8       7       6
       2       1       1       2       1       1       9       8       7       6
       2       1       1       2       1       1       9       8       7       6
       2       1       1       2       1       1       9       8       7       6
       2       1       1       2       1       1       9       8       7       6
       2       1       1       2       1       1       9       8       7       6
       2       1       1       2       1       1       9       8       7       6
       2       1       1       2       1       1       9       8       7       6
       2       1       1       2       1       1       9       8       7       6
       2       1       1       2       1       1       9       8       7       6
       2       1       1       2       1       1       9       8       7       6
       2       1       1       2       1       1       9       8       7       6
       2       1       1       2       1       1       9       8       7       6
       2       1       1       2       1       1       9       8       7       6
       2       1       1       2       1       1       9       8       7       6
       2       1       1       2       1       1       9       8       7       6
       2       1       1       2       1       1       9       8       7       6
       2       1       1       2       1       1       9       8       7       6
       2       1       1       2       1       1       9       8       7       6
       2       1       1       2       1       1       9       8       7       6
       2       1       1       2       1       1       9       8       7       6
       2       1       1       2       1       1       9       8       7       6
       2       1       1       2       1       1       9       8       7       6
       2       1       1       2       1       1       9       8       7       6
       2       1       1       2       1       1       9       8       7       6
       2       1       1       2       1       1       9       8       7       6
       2       1       1       2       1       1       9       8       7       6
       2       1       1       2       1       1       9       8       7       6
       2       1       1       2       1       1       9       8       7       6
       2       1       1       2       1       1       9       8       7       6
       2       1       1       2       1       1       9       8       7       6
       2       1       1       2       1       1       9       8       7       6
       2       1       1       2       1       1       9       8       7       6
       2       1       1       2       1       1       9       8       7       6
       2       1       1       2       1       1       9       8       7       6
       2       1       1       2       1       1       9       8       7       6
       2       1       1       2       1       1       9       8       7       6
       2       1       1       2       1       1       9       8       7       6
       2       1       1       2       1       1       9       8       7       6
       2       1       1       2       1       1       9       8       7       6
       2       1       1       2       1       1
%FLAG NONBONDED_PARM_INDEX                                                      
%FORMAT(10I8)                                                                   
       1       2       4       7      11      16      22      29       2       3
       5       8      12      17      23      30       4       5       6       9
      13      18      24      31       7       8       9      10      14      19
      25      32      11      12      13      14      15      20      26      33
      16      17      18      19      20      21      27      34      22      23
      24      25      26      27      28      35      29      30      31      32
      33      34      35      36
%FLAG RESIDUE_LABEL                                                             
%FORMAT(20a4)                                                                   
QUC DMS DMS DMS DMS DMS DMS DMS DMS DMS DMS DMS DMS DMS DMS DMS DMS DMS DMS DMS 
DMS DMS DMS DMS DMS DMS DMS DMS DMS DMS DMS DMS DMS DMS DMS DMS DMS DMS DMS DMS 
DMS DMS DMS DMS DMS DMS DMS DMS DMS DMS DMS DMS DMS DMS DMS DMS DMS DMS DMS DMS 
DMS DMS DMS DMS DMS DMS DMS DMS DMS DMS DMS DMS DMS DMS DMS DMS DMS DMS DMS DMS 
DMS DMS DMS DMS DMS DMS DMS DMS DMS DMS DMS DMS DMS DMS DMS DMS DMS DMS DMS DMS 
DMS DMS DMS DMS DMS DMS DMS DMS DMS DMS DMS DMS DMS DMS DMS DMS DMS DMS DMS DMS 
DMS DMS DMS DMS DMS DMS DMS DMS DMS DMS DMS DMS DMS DMS DMS DMS DMS DMS DMS DMS 
DMS DMS DMS DMS DMS DMS DMS DMS DMS DMS DMS DMS DMS DMS DMS DMS DMS DMS DMS DMS 
DMS DMS DMS DMS DMS DMS DMS DMS DMS DMS DMS DMS DMS DMS DMS DMS DMS DMS DMS DMS 
DMS DMS DMS DMS DMS DMS DMS DMS DMS DMS DMS DMS DMS DMS DMS DMS DMS DMS DMS DMS 
DMS DMS DMS DMS DMS DMS DMS DMS DMS DMS DMS DMS DMS DMS DMS DMS DMS DMS DMS DMS 
DMS DMS DMS DMS DMS DMS DMS DMS DMS DMS DMS DMS DMS DMS DMS DMS DMS DMS DMS DMS 
DMS DMS DMS DMS DMS DMS DMS DMS DMS DMS DMS DMS DMS DMS DMS DMS DMS DMS DMS DMS 
DMS DMS DMS DMS DMS DMS DMS DMS DMS DMS DMS DMS DMS DMS DMS DMS DMS DMS DMS DMS 
DMS DMS DMS DMS DMS DMS DMS DMS DMS DMS DMS DMS DMS DMS DMS DMS DMS DMS DMS DMS 
DMS DMS DMS DMS DMS DMS DMS DMS DMS DMS DMS DMS DMS DMS DMS DMS DMS DMS DMS DMS 
DMS DMS DMS DMS DMS DMS DMS DMS DMS DMS DMS DMS DMS DMS DMS DMS DMS DMS DMS DMS 
DMS 
%FLAG RESIDUE_POINTER                                                           
%FORMAT(10I8)                                                                   
       1      37      47      57      67      77      87      97     107     117
     127     137     147     157     167     177     187     197     207     217
     227     237     247     257     267     277     287     297     307     317
     327     337     347     357     367     377     387     397     407     417
     427     437     447     457     467     477     487     497     507     517
     527     537     547     557     567     577     587     597     607     617
     627     637     647     657     667     677     687     697     707     717
     727     737     747     757     767     777     787     797     807     817
     827     837     847     857     867     877     887     897     907     917
     927     937     947     957     967     977     987     997    1007    1017
    1027    1037    1047    1057    1067    1077    1087    1097    1107    1117
    1127    1137    1147    1157    1167    1177    1187    1197    1207    1217
    1227    1237    1247    1257    1267    1277    1287    1297    1307    1317
    1327    1337    1347    1357    1367    1377    1387    1397    1407    1417
    1427    1437    1447    1457    1467    1477    1487    1497    1507    1517
    1527    1537    1547    1557    1567    1577    1587    1597    1607    1617
    1627    1637    1647    1657    1667    1677    1687    1697    1707    1717
    1727    1737    1747    1757    1767    1777    1787    1797    1807    1817
    1827    1837    1847    1857    1867    1877    1887    1897    1907    1917
    1927    1937    1947    1957    1967    1977    1987    1997    2007    2017
    2027    2037    2047    2057    2067    2077    2087    2097    2107    2117
    2127    2137    2147    2157    2167    2177    2187    2197    2207    2217
    2227    2237    2247    2257    2267    2277    2287    2297    2307    2317
    2327    2337    2347    2357    2367    2377    2387    2397    2407    2417
    2427    2437    2447    2457    2467    2477    2487    2497    2507    2517
    2527    2537    2547    2557    2567    2577    2587    2597    2607    2617
    2627    2637    2647    2657    2667    2677    2687    2697    2707    2717
    2727    2737    2747    2757    2767    2777    2787    2797    2807    2817
    2827    2837    2847    2857    2867    2877    2887    2897    2907    2917
    2927    2937    2947    2957    2967    2977    2987    2997    3007    3017
    3027    3037    3047    3057    3067    3077    3087    3097    3107    3117
    3127    3137    3147    3157    3167    3177    3187    3197    3207    3217
    3227    3237    3247    3257    3267    3277    3287    3297    3307    3317
    3327    3337    3347    3357    3367    3377    3387    3397    3407    3417
    3427
%FLAG BOND_FORCE_CONSTANT                                                       
%FORMAT(5E16.8)                                                                 
  3.60690000E+02  3.54250000E+02  2.62840000E+02  3.29320000E+02  4.81770000E+02
  5.90600000E+02  3.44220000E+02  5.36880000E+02  1.83100000E+02
%FLAG BOND_EQUIL_VALUE                                                          
%FORMAT(5E16.8)                                                                 
  1.08600000E+00  1.39860000E+00  1.49070000E+00  1.38580000E+00  1.00950000E+00
  1.21900000E+00  1.09690000E+00  1.50860000E+00  1.84420000E+00
%FLAG ANGLE_FORCE_CONSTANT                                                      
%FORMAT(5E16.8)                                                                 
  4.49000000E+01  6.36700000E+01  6.14400000E+01  5.52700000E+01  7.94200000E+01
  6.02700000E+01  6.78200000E+01  7.79600000E+01  3.56400000E+01  9.42700000E+01
  1.17780000E+02  4.21800000E+01
%FLAG ANGLE_EQUIL_VALUE                                                         
%FORMAT(5E16.8)                                                                 
  2.09230160E+00  2.09474507E+00  2.10015559E+00  2.19056368E+00  2.09491960E+00
  2.05826767E+00  2.09980652E+00  2.13977458E+00  1.89455572E+00  1.67429507E+00
  1.86540870E+00  1.87832415E+00
%FLAG DIHEDRAL_FORCE_CONSTANT                                                   
%FORMAT(5E16.8)                                                                 
  3.62500000E+00  3.00000000E-01  1.25000000E+00  5.80000000E-01  0.00000000E+00
  2.00000000E-01  1.10000000E+00  1.05000000E+01
%FLAG DIHEDRAL_PERIODICITY                                                      
%FORMAT(5E16.8)                                                                 
  2.00000000E+00  2.00000000E+00  2.00000000E+00  2.00000000E+00  1.00000000E+00
  3.00000000E+00  2.00000000E+00  2.00000000E+00
%FLAG DIHEDRAL_PHASE                                                            
%FORMAT(5E16.8)                                                                 
  3.14159400E+00  3.14159400E+00  3.14159400E+00  3.14159400E+00  0.00000000E+00
  0.00000000E+00  3.14159400E+00  3.14159400E+00
%FLAG SCEE_SCALE_FACTOR                                                         
%FORMAT(5E16.8)                                                                 
  1.20000000E+00  1.20000000E+00  1.20000000E+00  1.20000000E+00  1.20000000E+00
  1.20000000E+00  0.00000000E+00  0.00000000E+00
%FLAG SCNB_SCALE_FACTOR                                                         
%FORMAT(5E16.8)                                                                 
  2.00000000E+00  2.00000000E+00  2.00000000E+00  2.00000000E+00  2.00000000E+00
  2.00000000E+00  0.00000000E+00  0.00000000E+00
%FLAG SOLTY                                                                     
%FORMAT(5E16.8)                                                                 
  0.00000000E+00  0.00000000E+00  0.00000000E+00  0.00000000E+00  0.00000000E+00
  0.00000000E+00  0.00000000E+00  0.00000000E+00  0.00000000E+00
%FLAG LENNARD_JONES_ACOEF                                                       
%FORMAT(5E16.8)                                                                 
  3.76435470E+05  6.04208667E+05  9.62429652E+05  5.17507491E+05  8.20152428E+05
  6.96551276E+05  5.27277400E+04  8.65595848E+04  7.52549148E+04  6.90855956E+03
  9.87857350E+02  1.82491629E+03  1.71458823E+03  9.04434904E+01  1.34728399E-01
  1.30884564E+06  2.05449504E+06  1.73376823E+06  1.95762765E+05  5.15374979E+03
  4.26366419E+06  6.30925504E+05  9.96191545E+05  8.43969952E+05  9.27554496E+04
  2.23577481E+03  2.09089895E+06  1.02073671E+06  3.86646725E+04  6.42436358E+04
  5.63013422E+04  4.88692384E+03  5.24570081E+01  1.48672098E+05  6.97998263E+04
  3.39005767E+03
%FLAG LENNARD_JONES_BCOEF                                                       
%FORMAT(5E16.8)                                                                 
  4.69350655E+02  6.46321327E+02  8.86629877E+02  4.98871431E+02  6.82622272E+02
  5.24668528E+02  1.01173582E+02  1.40899023E+02  1.09570372E+02  2.10929191E+01
  1.22938581E+01  1.81620725E+01  1.46824710E+01  2.14252117E+00  7.34107347E-02
  1.03157656E+03  1.40479403E+03  1.07629402E+03  2.29782888E+02  3.30984635E+01
  2.19459223E+03  5.62969425E+02  7.68900328E+02  5.90251928E+02  1.24325688E+02
  1.71355763E+01  1.20800124E+03  6.63431737E+02  9.23664132E+01  1.29412081E+02
  1.01040256E+02  1.89134207E+01  1.73959275E+00  2.13489607E+02  1.14981426E+02
  1.67944276E+01
%FLAG BONDS_INC_HYDROGEN                                                        
%FORMAT(10I8)                                                                   
      69     105       1      66     102       1      63      99       1      60
      96       1      57      93       1      54      90       1      51      87
       1      48      84       1      27      75       1      24      72       1
       9      81       5       6      78       5     117     129       7     117
     132       7     117     135       7     114     120       7     114     123
       7     114     126       7     147     159       7     147     162       7
     147     165       7     144     150       7     144     153       7     144
     156       7     177     189       7     177     192       7     177     195
       7     174     180       7     174     183       7     174     186       7
     207     219       7     207     222       7     207     225       7     204
     210       7     204     213       7     204     216       7     237     249
       7     237     252       7     237     255       7     234     240       7
     234     243       7     234     246       7     267     279       7     267
     282       7     267     285       7     264     270       7     264     273
       7     264     276       7     297     309       7     297     312       7
     297     315       7     294     300       7     294     303       7     294
     306       7     327     339       7     327     342       7     327     345
       7     324     330       7     324     333       7     324     336       7
     357     369       7     357     372       7     357     375       7     354
     360       7     354     363       7     354     366       7     387     399
       7     387     402       7     387     405       7     384     390       7
     384     393       7     384     396       7     417     429       7     417
     432       7     417     435       7     414     420       7     414     423
       7     414     426       7     447     459       7     447     462       7
     447     465       7     444     450       7     444     453       7     444
     456       7     477     489       7     477     492       7     477     495
       7     474     480       7     474     483       7     474     486       7
     507     519       7     507     522       7     507     525       7     504
     510       7     504     513       7     504     516       7     537     549
       7     537     552       7     537     555       7     534     540       7
     534     543       7     534     546       7     567     579       7     567
     582       7     567     585       7     564     570       7     564     573
       7     564     576       7     597     609       7     597     612       7
     597     615       7     594     600       7     594     603       7     594
     606       7     627     639       7     627     642       7     627     645
       7     624     630       7     624     633       7     624     636       7
     657     669       7     657     672       7     657     675       7     654
     660       7     654     663       7     654     666       7     687     699
       7     687     702       7     687     705       7     684     690       7
     684     693       7     684     696       7     717     729       7     717
     732       7     717     735       7     714     720       7     714     723
       7     714     726       7     747     759       7     747     762       7
     747     765       7     744     750       7     744     753       7     744
     756       7     777     789       7     777     792       7     777     795
       7     774     780       7     774     783       7     774     786       7
     807     819       7     807     822       7     807     825       7     804
     810       7     804     813       7     804     816       7     837     849
       7     837     852       7     837     855       7     834     840       7
     834     843       7     834     846       7     867     879       7     867
     882       7     867     885       7     864     870       7     864     873
       7     864     876       7     897     909       7     897     912       7
     897     915       7     894     900       7     894     903       7     894
     906       7     927     939       7     927     942       7     927     945
       7     924     930       7     924     933       7     924     936       7
     957     969       7     957     972       7     957     975       7     954
     960       7     954     963       7     954     966       7     987     999
       7     987    1002       7     987    1005       7     984     990       7
     984     993       7     984     996       7    1017    1029       7    1017
    1032       7    1017    1035       7    1014    1020       7    1014    1023
       7    1014    1026       7    1047    1059       7    1047    1062       7
    1047    1065       7    1044    1050       7    1044    1053       7    1044
    1056       7    1077    1089       7    1077    1092       7    1077    1095
       7    1074    1080       7    1074    1083       7    1074    1086       7
    1107    1119       7    1107    1122       7    1107    1125       7    1104
    1110       7    1104    1113       7    1104    1116       7    1137    1149
       7    1137    1152       7    1137    1155       7    1134    1140       7
    1134    1143       7    1134    1146       7    1167    1179       7    1167
    1182       7    1167    1185       7    1164    1170       7    1164    1173
       7    1164    1176       7    1197    1209       7    1197    1212       7
    1197    1215       7    1194    1200       7    1194    1203       7    1194
    1206       7    1227    1239       7    1227    1242       7    1227    1245
       7    1224    1230       7    1224    1233       7    1224    1236       7
    1257    1269       7    1257    1272       7    1257    1275       7    1254
    1260       7    1254    1263       7    1254    1266       7    1287    1299
       7    1287    1302       7    1287    1305       7    1284    1290       7
    1284    1293       7    1284    1296       7    1317    1329       7    1317
    1332       7    1317    1335       7    1314    1320       7    1314    1323
       7    1314    1326       7    1347    1359       7    1347    1362       7
    1347    1365       7    1344    1350       7    1344    1353       7    1344
    1356       7    1377    1389       7    1377    1392       7    1377    1395
       7    1374    1380       7    1374    1383       7    1374    1386       7
    1407    1419       7    1407    1422       7    1407    1425       7    1404
    1410       7    1404    1413       7    1404    1416       7    1437    1449
       7    1437    1452       7    1437    1455       7    1434    1440       7
    1434    1443       7    1434    1446       7    1467    1479       7    1467
    1482       7    1467    1485       7    1464    1470       7    1464    1473
       7    1464    1476       7    1497    1509       7    1497    1512       7
    1497    1515       7    1494    1500       7    1494    1503       7    1494
    1506       7    1527    1539       7    1527    1542       7    1527    1545
       7    1524    1530       7    1524    1533       7    1524    1536       7
    1557    1569       7    1557    1572       7    1557    1575       7    1554
    1560       7    1554    1563       7    1554    1566       7    1587    1599
       7    1587    1602       7    1587    1605       7    1584    1590       7
    1584    1593       7    1584    1596       7    1617    1629       7    1617
    1632       7    1617    1635       7    1614    1620       7    1614    1623
       7    1614    1626       7    1647    1659       7    1647    1662       7
    1647    1665       7    1644    1650       7    1644    1653       7    1644
    1656       7    1677    1689       7    1677    1692       7    1677    1695
       7    1674    1680       7    1674    1683       7    1674    1686       7
    1707    1719       7    1707    1722       7    1707    1725       7    1704
    1710       7    1704    1713       7    1704    1716       7    1737    1749
       7    1737    1752       7    1737    1755       7    1734    1740       7
    1734    1743       7    1734    1746       7    1767    1779       7    1767
    1782       7    1767    1785       7    1764    1770       7    1764    1773
       7    1764    1776       7    1797    1809       7    1797    1812       7
    1797    1815       7    1794    1800       7    1794    1803       7    1794
    1806       7    1827    1839       7    1827    1842       7    1827    1845
       7    1824    1830       7    1824    1833       7    1824    1836       7
    1857    1869       7    1857    1872       7    1857    1875       7    1854
    1860       7    1854    1863       7    1854    1866       7    1887    1899
       7    1887    1902       7    1887    1905       7    1884    1890       7
    1884    1893       7    1884    1896       7    1917    1929       7    1917
    1932       7    1917    1935       7    1914    1920       7    1914    1923
       7    1914    1926       7    1947    1959       7    1947    1962       7
    1947    1965       7    1944    1950       7    1944    1953       7    1944
    1956       7    1977    1989       7    1977    1992       7    1977    1995
       7    1974    1980       7    1974    1983       7    1974    1986       7
    2007    2019       7    2007    2022       7    2007    2025       7    2004
    2010       7    2004    2013       7    2004    2016       7    2037    2049
       7    2037    2052       7    2037    2055       7    2034    2040       7
    2034    2043       7    2034    2046       7    2067    2079       7    2067
    2082       7    2067    2085       7    2064    2070       7    2064    2073
       7    2064    2076       7    2097    2109       7    2097    2112       7
    2097    2115       7    2094    2100       7    2094    2103       7    2094
    2106       7    2127    2139       7    2127    2142       7    2127    2145
       7    2124    2130       7    2124    2133       7    2124    2136       7
    2157    2169       7    2157    2172       7    2157    2175       7    2154
    2160       7    2154    2163       7    2154    2166       7    2187    2199
       7    2187    2202       7    2187    2205       7    2184    2190       7
    2184    2193       7    2184    2196       7    2217    2229       7    2217
    2232       7    2217    2235       7    2214    2220       7    2214    2223
       7    2214    2226       7    2247    2259       7    2247    2262       7
    2247    2265       7    2244    2250       7    2244    2253       7    2244
    2256       7    2277    2289       7    2277    2292       7    2277    2295
       7    2274    2280       7    2274    2283       7    2274    2286       7
    2307    2319       7    2307    2322       7    2307    2325       7    2304
    2310       7    2304    2313       7    2304    2316       7    2337    2349
       7    2337    2352       7    2337    2355       7    2334    2340       7
    2334    2343       7    2334    2346       7    2367    2379       7    2367
    2382       7    2367    2385       7    2364    2370       7    2364    2373
       7    2364    2376       7    2397    2409       7    2397    2412       7
    2397    2415       7    2394    2400       7    2394    2403       7    2394
    2406       7    2427    2439       7    2427    2442       7    2427    2445
       7    2424    2430       7    2424    2433       7    2424    2436       7
    2457    2469       7    2457    2472       7    2457    2475       7    2454
    2460       7    2454    2463       7    2454    2466       7    2487    2499
       7    2487    2502       7    2487    2505       7    2484    2490       7
    2484    2493       7    2484    2496       7    2517    2529       7    2517
    2532       7    2517    2535       7    2514    2520       7    2514    2523
       7    2514    2526       7    2547    2559       7    2547    2562       7
    2547    2565       7    2544    2550       7    2544    2553       7    2544
    2556       7    2577    2589       7    2577    2592       7    2577    2595
       7    2574    2580       7    2574    2583       7    2574    2586       7
    2607    2619       7    2607    2622       7    2607    2625       7    2604
    2610       7    2604    2613       7    2604    2616       7    2637    2649
       7    2637    2652       7    2637    2655       7    2634    2640       7
    2634    2643       7    2634    2646       7    2667    2679       7    2667
    2682       7    2667    2685       7    2664    2670       7    2664    2673
       7    2664    2676       7    2697    2709       7    2697    2712       7
    2697    2715       7    2694    2700       7    2694    2703       7    2694
    2706       7    2727    2739       7    2727    2742       7    2727    2745
       7    2724    2730       7    2724    2733       7    2724    2736       7
    2757    2769       7    2757    2772       7    2757    2775       7    2754
    2760       7    2754    2763       7    2754    2766       7    2787    2799
       7    2787    2802       7    2787    2805       7    2784    2790       7
    2784    2793       7    2784    2796       7    2817    2829       7    2817
    2832       7    2817    2835       7    2814    2820       7    2814    2823
       7    2814    2826       7    2847    2859       7    2847    2862       7
    2847    2865       7    2844    2850       7    2844    2853       7    2844
    2856       7    2877    2889       7    2877    2892       7    2877    2895
       7    2874    2880       7    2874    2883       7    2874    2886       7
    2907    2919       7    2907    2922       7    2907    2925       7    2904
    2910       7    2904    2913       7    2904    2916       7    2937    2949
       7    2937    2952       7    2937    2955       7    2934    2940       7
    2934    2943       7    2934    2946       7    2967    2979       7    2967
    2982       7    2967    2985       7    2964    2970       7    2964    2973
       7    2964    2976       7    2997    3009       7    2997    3012       7
    2997    3015       7    2994    3000       7    2994    3003       7    2994
    3006       7    3027    3039       7    3027    3042       7    3027    3045
       7    3024    3030       7    3024    3033       7    3024    3036       7
    3057    3069       7    3057    3072       7    3057    3075       7    3054
    3060       7    3054    3063       7    3054    3066       7    3087    3099
       7    3087    3102       7    3087    3105       7    3084    3090       7
    3084    3093       7    3084    3096       7    3117    3129       7    3117
    3132       7    3117    3135       7    3114    3120       7    3114    3123
       7    3114    3126       7    3147    3159       7    3147    3162       7
    3147    3165       7    3144    3150       7    3144    3153       7    3144
    3156       7    3177    3189       7    3177    3192       7    3177    3195
       7    3174    3180       7    3174    3183       7    3174    3186       7
    3207    3219       7    3207    3222       7    3207    3225       7    3204
    3210       7    3204    3213       7    3204    3216       7    3237    3249
       7    3237    3252       7    3237    3255       7    3234    3240       7
    3234    3243       7    3234    3246       7    3267    3279       7    3267
    3282       7    3267    3285       7    3264    3270       7    3264    3273
       7    3264    3276       7    3297    3309       7    3297    3312       7
    3297    3315       7    3294    3300       7    3294    3303       7    3294
    3306       7    3327    3339       7    3327    3342       7    3327    3345
       7    3324    3330       7    3324    3333       7    3324    3336       7
    3357    3369       7    3357    3372       7    3357    3375       7    3354
    3360       7    3354    3363       7    3354    3366       7    3387    3399
       7    3387    3402       7    3387    3405       7    3384    3390       7
    3384    3393       7    3384    3396       7    3417    3429       7    3417
    3432       7    3417    3435       7    3414    3420       7    3414    3423
       7    3414    3426       7    3447    3459       7    3447    3462       7
    3447    3465       7    3444    3450       7    3444    3453       7    3444
    3456       7    3477    3489       7    3477    3492       7    3477    3495
       7    3474    3480       7    3474    3483       7    3474    3486       7
    3507    3519       7    3507    3522       7    3507    3525       7    3504
    3510       7    3504    3513       7    3504    3516       7    3537    3549
       7    3537    3552       7    3537    3555       7    3534    3540       7
    3534    3543       7    3534    3546       7    3567    3579       7    3567
    3582       7    3567    3585       7    3564    3570       7    3564    3573
       7    3564    3576       7    3597    3609       7    3597    3612       7
    3597    3615       7    3594    3600       7    3594    3603       7    3594
    3606       7    3627    3639       7    3627    3642       7    3627    3645
       7    3624    3630       7    3624    3633       7    3624    3636       7
    3657    3669       7    3657    3672       7    3657    3675       7    3654
    3660       7    3654    3663       7    3654    3666       7    3687    3699
       7    3687    3702       7    3687    3705       7    3684    3690       7
    3684    3693       7    3684    3696       7    3717    3729       7    3717
    3732       7    3717    3735       7    3714    3720       7    3714    3723
       7    3714    3726       7    3747    3759       7    3747    3762       7
    3747    3765       7    3744    3750       7    3744    3753       7    3744
    3756       7    3777    3789       7    3777    3792       7    3777    3795
       7    3774    3780       7    3774    3783       7    3774    3786       7
    3807    3819       7    3807    3822       7    3807    3825       7    3804
    3810       7    3804    3813       7    3804    3816       7    3837    3849
       7    3837    3852       7    3837    3855       7    3834    3840       7
    3834    3843       7    3834    3846       7    3867    3879       7    3867
    3882       7    3867    3885       7    3864    3870       7    3864    3873
       7    3864    3876       7    3897    3909       7    3897    3912       7
    3897    3915       7    3894    3900       7    3894    3903       7    3894
    3906       7    3927    3939       7    3927    3942       7    3927    3945
       7    3924    3930       7    3924    3933       7    3924    3936       7
    3957    3969       7    3957    3972       7    3957    3975       7    3954
    3960       7    3954    3963       7    3954    3966       7    3987    3999
       7    3987    4002       7    3987    4005       7    3984    3990       7
    3984    3993       7    3984    3996       7    4017    4029       7    4017
    4032       7    4017    4035       7    4014    4020       7    4014    4023
       7    4014    4026       7    4047    4059       7    4047    4062       7
    4047    4065       7    4044    4050       7    4044    4053       7    4044
    4056       7    4077    4089       7    4077    4092       7    4077    4095
       7    4074    4080       7    4074    4083       7    4074    4086       7
    4107    4119       7    4107    4122       7    4107    4125       7    4104
    4110       7    4104    4113       7    4104    4116       7    4137    4149
       7    4137    4152       7    4137    4155       7    4134    4140       7
    4134    4143       7    4134    4146       7    4167    4179       7    4167
    4182       7    4167    4185       7    4164    4170       7    4164    4173
       7    4164    4176       7    4197    4209       7    4197    4212       7
    4197    4215       7    4194    4200       7    4194    4203       7    4194
    4206       7    4227    4239       7    4227    4242       7    4227    4245
       7    4224    4230       7    4224    4233       7    4224    4236       7
    4257    4269       7    4257    4272       7    4257    4275       7    4254
    4260       7    4254    4263       7    4254    4266       7    4287    4299
       7    4287    4302       7    4287    4305       7    4284    4290       7
    4284    4293       7    4284    4296       7    4317    4329       7    4317
    4332       7    4317    4335       7    4314    4320       7    4314    4323
       7    4314    4326       7    4347    4359       7    4347    4362       7
    4347    4365       7    4344    4350       7    4344    4353       7    4344
    4356       7    4377    4389       7    4377    4392       7    4377    4395
       7    4374    4380       7    4374    4383       7    4374    4386       7
    4407    4419       7    4407    4422       7    4407    4425       7    4404
    4410       7    4404    4413       7    4404    4416       7    4437    4449
       7    4437    4452       7    4437    4455       7    4434    4440       7
    4434    4443       7    4434    4446       7    4467    4479       7    4467
    4482       7    4467    4485       7    4464    4470       7    4464    4473
       7    4464    4476       7    4497    4509       7    4497    4512       7
    4497    4515       7    4494    4500       7    4494    4503       7    4494
    4506       7    4527    4539       7    4527    4542       7    4527    4545
       7    4524    4530       7    4524    4533       7    4524    4536       7
    4557    4569       7    4557    4572       7    4557    4575       7    4554
    4560       7    4554    4563       7    4554    4566       7    4587    4599
       7    4587    4602       7    4587    4605       7    4584    4590       7
    4584    4593       7    4584    4596       7    4617    4629       7    4617
    4632       7    4617    4635       7    4614    4620       7    4614    4623
       7    4614    4626       7    4647    4659       7    4647    4662       7
    4647    4665       7    4644    4650       7    4644    4653       7    4644
    4656       7    4677    4689       7    4677    4692       7    4677    4695
       7    4674    4680       7    4674    4683       7    4674    4686       7
    4707    4719       7    4707    4722       7    4707    4725       7    4704
    4710       7    4704    4713       7    4704    4716       7    4737    4749
       7    4737    4752       7    4737    4755       7    4734    4740       7
    4734    4743       7    4734    4746       7    4767    4779       7    4767
    4782       7    4767    4785       7    4764    4770       7    4764    4773
       7    4764    4776       7    4797    4809       7    4797    4812       7
    4797    4815       7    4794    4800       7    4794    4803       7    4794
    4806       7    4827    4839       7    4827    4842       7    4827    4845
       7    4824    4830       7    4824    4833       7    4824    4836       7
    4857    4869       7    4857    4872       7    4857    4875       7    4854
    4860       7    4854    4863       7    4854    4866       7    4887    4899
       7    4887    4902       7    4887    4905       7    4884    4890       7
    4884    4893       7    4884    4896       7    4917    4929       7    4917
    4932       7    4917    4935       7    4914    4920       7    4914    4923
       7    4914    4926       7    4947    4959       7    4947    4962       7
    4947    4965       7    4944    4950       7    4944    4953       7    4944
    4956       7    4977    4989       7    4977    4992       7    4977    4995
       7    4974    4980       7    4974    4983       7    4974    4986       7
    5007    5019       7    5007    5022       7    5007    5025       7    5004
    5010       7    5004    5013       7    5004    5016       7    5037    5049
       7    5037    5052       7    5037    5055       7    5034    5040       7
    5034    5043       7    5034    5046       7    5067    5079       7    5067
    5082       7    5067    5085       7    5064    5070       7    5064    5073
       7    5064    5076       7    5097    5109       7    5097    5112       7
    5097    5115       7    5094    5100       7    5094    5103       7    5094
    5106       7    5127    5139       7    5127    5142       7    5127    5145
       7    5124    5130       7    5124    5133       7    5124    5136       7
    5157    5169       7    5157    5172       7    5157    5175       7    5154
    5160       7    5154    5163       7    5154    5166       7    5187    5199
       7    5187    5202       7    5187    5205       7    5184    5190       7
    5184    5193       7    5184    5196       7    5217    5229       7    5217
    5232       7    5217    5235       7    5214    5220       7    5214    5223
       7    5214    5226       7    5247    5259       7    5247    5262       7
    5247    5265       7    5244    5250       7    5244    5253       7    5244
    5256       7    5277    5289       7    5277    5292       7    5277    5295
       7    5274    5280       7    5274    5283       7    5274    5286       7
    5307    5319       7    5307    5322       7    5307    5325       7    5304
    5310       7    5304    5313       7    5304    5316       7    5337    5349
       7    5337    5352       7    5337    5355       7    5334    5340       7
    5334    5343       7    5334    5346       7    5367    5379       7    5367
    5382       7    5367    5385       7    5364    5370       7    5364    5373
       7    5364    5376       7    5397    5409       7    5397    5412       7
    5397    5415       7    5394    5400       7    5394    5403       7    5394
    5406       7    5427    5439       7    5427    5442       7    5427    5445
       7    5424    5430       7    5424    5433       7    5424    5436       7
    5457    5469       7    5457    5472       7    5457    5475       7    5454
    5460       7    5454    5463       7    5454    5466       7    5487    5499
       7    5487    5502       7    5487    5505       7    5484    5490       7
    5484    5493       7    5484    5496       7    5517    5529       7    5517
    5532       7    5517    5535       7    5514    5520       7    5514    5523
       7    5514    5526       7    5547    5559       7    5547    5562       7
    5547    5565       7    5544    5550       7    5544    5553       7    5544
    5556       7    5577    5589       7    5577    5592       7    5577    5595
       7    5574    5580       7    5574    5583       7    5574    5586       7
    5607    5619       7    5607    5622       7    5607    5625       7    5604
    5610       7    5604    5613       7    5604    5616       7    5637    5649
       7    5637    5652       7    5637    5655       7    5634    5640       7
    5634    5643       7    5634    5646       7    5667    5679       7    5667
    5682       7    5667    5685       7    5664    5670       7    5664    5673
       7    5664    5676       7    5697    5709       7    5697    5712       7
    5697    5715       7    5694    5700       7    5694    5703       7    5694
    5706       7    5727    5739       7    5727    5742       7    5727    5745
       7    5724    5730       7    5724    5733       7    5724    5736       7
    5757    5769       7    5757    5772       7    5757    5775       7    5754
    5760       7    5754    5763       7    5754    5766       7    5787    5799
       7    5787    5802       7    5787    5805       7    5784    5790       7
    5784    5793       7    5784    5796       7    5817    5829       7    5817
    5832       7    5817    5835       7    5814    5820       7    5814    5823
       7    5814    5826       7    5847    5859       7    5847    5862       7
    5847    5865       7    5844    5850       7    5844    5853       7    5844
    5856       7    5877    5889       7    5877    5892       7    5877    5895
       7    5874    5880       7    5874    5883       7    5874    5886       7
    5907    5919       7    5907    5922       7    5907    5925       7    5904
    5910       7    5904    5913       7    5904    5916       7    5937    5949
       7    5937    5952       7    5937    5955       7    5934    5940       7
    5934    5943       7    5934    5946       7    5967    5979       7    5967
    5982       7    5967    5985       7    5964    5970       7    5964    5973
       7    5964    5976       7    5997    6009       7    5997    6012       7
    5997    6015       7    5994    6000       7    5994    6003       7    5994
    6006       7    6027    6039       7    6027    6042       7    6027    6045
       7    6024    6030       7    6024    6033       7    6024    6036       7
    6057    6069       7    6057    6072       7    6057    6075       7    6054
    6060       7    6054    6063       7    6054    6066       7    6087    6099
       7    6087    6102       7    6087    6105       7    6084    6090       7
    6084    6093       7    6084    6096       7    6117    6129       7    6117
    6132       7    6117    6135       7    6114    6120       7    6114    6123
       7    6114    6126       7    6147    6159       7    6147    6162       7
    6147    6165       7    6144    6150       7    6144    6153       7    6144
    6156       7    6177    6189       7    6177    6192       7    6177    6195
       7    6174    6180       7    6174    6183       7    6174    6186       7
    6207    6219       7    6207    6222       7    6207    6225       7    6204
    6210       7    6204    6213       7    6204    6216       7    6237    6249
       7    6237    6252       7    6237    6255       7    6234    6240       7
    6234    6243       7    6234    6246       7    6267    6279       7    6267
    6282       7    6267    6285       7    6264    6270       7    6264    6273
       7    6264    6276       7    6297    6309       7    6297    6312       7
    6297    6315       7    6294    6300       7    6294    6303       7    6294
    6306       7    6327    6339       7    6327    6342       7    6327    6345
       7    6324    6330       7    6324    6333       7    6324    6336       7
    6357    6369       7    6357    6372       7    6357    6375       7    6354
    6360       7    6354    6363       7    6354    6366       7    6387    6399
       7    6387    6402       7    6387    6405       7    6384    6390       7
    6384    6393       7    6384    6396       7    6417    6429       7    6417
    6432       7    6417    6435       7    6414    6420       7    6414    6423
       7    6414    6426       7    6447    6459       7    6447    6462       7
    6447    6465       7    6444    6450       7    6444    6453       7    6444
    6456       7    6477    6489       7    6477    6492       7    6477    6495
       7    6474    6480       7    6474    6483       7    6474    6486       7
    6507    6519       7    6507    6522       7    6507    6525       7    6504
    6510       7    6504    6513       7    6504    6516       7    6537    6549
       7    6537    6552       7    6537    6555       7    6534    6540       7
    6534    6543       7    6534    6546       7    6567    6579       7    6567
    6582       7    6567    6585       7    6564    6570       7    6564    6573
       7    6564    6576       7    6597    6609       7    6597    6612       7
    6597    6615       7    6594    6600       7    6594    6603       7    6594
    6606       7    6627    6639       7    6627    6642       7    6627    6645
       7    6624    6630       7    6624    6633       7    6624    6636       7
    6657    6669       7    6657    6672       7    6657    6675       7    6654
    6660       7    6654    6663       7    6654    6666       7    6687    6699
       7    6687    6702       7    6687    6705       7    6684    6690       7
    6684    6693       7    6684    6696       7    6717    6729       7    6717
    6732       7    6717    6735       7    6714    6720       7    6714    6723
       7    6714    6726       7    6747    6759       7    6747    6762       7
    6747    6765       7    6744    6750       7    6744    6753       7    6744
    6756       7    6777    6789       7    6777    6792       7    6777    6795
       7    6774    6780       7    6774    6783       7    6774    6786       7
    6807    6819       7    6807    6822       7    6807    6825       7    6804
    6810       7    6804    6813       7    6804    6816       7    6837    6849
       7    6837    6852       7    6837    6855       7    6834    6840       7
    6834    6843       7    6834    6846       7    6867    6879       7    6867
    6882       7    6867    6885       7    6864    6870       7    6864    6873
       7    6864    6876       7    6897    6909       7    6897    6912       7
    6897    6915       7    6894    6900       7    6894    6903       7    6894
    6906       7    6927    6939       7    6927    6942       7    6927    6945
       7    6924    6930       7    6924    6933       7    6924    6936       7
    6957    6969       7    6957    6972       7    6957    6975       7    6954
    6960       7    6954    6963       7    6954    6966       7    6987    6999
       7    6987    7002       7    6987    7005       7    6984    6990       7
    6984    6993       7    6984    6996       7    7017    7029       7    7017
    7032       7    7017    7035       7    7014    7020       7    7014    7023
       7    7014    7026       7    7047    7059       7    7047    7062       7
    7047    7065       7    7044    7050       7    7044    7053       7    7044
    7056       7    7077    7089       7    7077    7092       7    7077    7095
       7    7074    7080       7    7074    7083       7    7074    7086       7
    7107    7119       7    7107    7122       7    7107    7125       7    7104
    7110       7    7104    7113       7    7104    7116       7    7137    7149
       7    7137    7152       7    7137    7155       7    7134    7140       7
    7134    7143       7    7134    7146       7    7167    7179       7    7167
    7182       7    7167    7185       7    7164    7170       7    7164    7173
       7    7164    7176       7    7197    7209       7    7197    7212       7
    7197    7215       7    7194    7200       7    7194    7203       7    7194
    7206       7    7227    7239       7    7227    7242       7    7227    7245
       7    7224    7230       7    7224    7233       7    7224    7236       7
    7257    7269       7    7257    7272       7    7257    7275       7    7254
    7260       7    7254    7263       7    7254    7266       7    7287    7299
       7    7287    7302       7    7287    7305       7    7284    7290       7
    7284    7293       7    7284    7296       7    7317    7329       7    7317
    7332       7    7317    7335       7    7314    7320       7    7314    7323
       7    7314    7326       7    7347    7359       7    7347    7362       7
    7347    7365       7    7344    7350       7    7344    7353       7    7344
    7356       7    7377    7389       7    7377    7392       7    7377    7395
       7    7374    7380       7    7374    7383       7    7374    7386       7
    7407    7419       7    7407    7422       7    7407    7425       7    7404
    7410       7    7404    7413       7    7404    7416       7    7437    7449
       7    7437    7452       7    7437    7455       7    7434    7440       7
    7434    7443       7    7434    7446       7    7467    7479       7    7467
    7482       7    7467    7485       7    7464    7470       7    7464    7473
       7    7464    7476       7    7497    7509       7    7497    7512       7
    7497    7515       7    7494    7500       7    7494    7503       7    7494
    7506       7    7527    7539       7    7527    7542       7    7527    7545
       7    7524    7530       7    7524    7533       7    7524    7536       7
    7557    7569       7    7557    7572       7    7557    7575       7    7554
    7560       7    7554    7563       7    7554    7566       7    7587    7599
       7    7587    7602       7    7587    7605       7    7584    7590       7
    7584    7593       7    7584    7596       7    7617    7629       7    7617
    7632       7    7617    7635       7    7614    7620       7    7614    7623
       7    7614    7626       7    7647    7659       7    7647    7662       7
    7647    7665       7    7644    7650       7    7644    7653       7    7644
    7656       7    7677    7689       7    7677    7692       7    7677    7695
       7    7674    7680       7    7674    7683       7    7674    7686       7
    7707    7719       7    7707    7722       7    7707    7725       7    7704
    7710       7    7704    7713       7    7704    7716       7    7737    7749
       7    7737    7752       7    7737    7755       7    7734    7740       7
    7734    7743       7    7734    7746       7    7767    7779       7    7767
    7782       7    7767    7785       7    7764    7770       7    7764    7773
       7    7764    7776       7    7797    7809       7    7797    7812       7
    7797    7815       7    7794    7800       7    7794    7803       7    7794
    7806       7    7827    7839       7    7827    7842       7    7827    7845
       7    7824    7830       7    7824    7833       7    7824    7836       7
    7857    7869       7    7857    7872       7    7857    7875       7    7854
    7860       7    7854    7863       7    7854    7866       7    7887    7899
       7    7887    7902       7    7887    7905       7    7884    7890       7
    7884    7893       7    7884    7896       7    7917    7929       7    7917
    7932       7    7917    7935       7    7914    7920       7    7914    7923
       7    7914    7926       7    7947    7959       7    7947    7962       7
    7947    7965       7    7944    7950       7    7944    7953       7    7944
    7956       7    7977    7989       7    7977    7992       7    7977    7995
       7    7974    7980       7    7974    7983       7    7974    7986       7
    8007    8019       7    8007    8022       7    8007    8025       7    8004
    8010       7    8004    8013       7    8004    8016       7    8037    8049
       7    8037    8052       7    8037    8055       7    8034    8040       7
    8034    8043       7    8034    8046       7    8067    8079       7    8067
    8082       7    8067    8085       7    8064    8070       7    8064    8073
       7    8064    8076       7    8097    8109       7    8097    8112       7
    8097    8115       7    8094    8100       7    8094    8103       7    8094
    8106       7    8127    8139       7    8127    8142       7    8127    8145
       7    8124    8130       7    8124    8133       7    8124    8136       7
    8157    8169       7    8157    8172       7    8157    8175       7    8154
    8160       7    8154    8163       7    8154    8166       7    8187    8199
       7    8187    8202       7    8187    8205       7    8184    8190       7
    8184    8193       7    8184    8196       7    8217    8229       7    8217
    8232       7    8217    8235       7    8214    8220       7    8214    8223
       7    8214    8226       7    8247    8259       7    8247    8262       7
    8247    8265       7    8244    8250       7    8244    8253       7    8244
    8256       7    8277    8289       7    8277    8292       7    8277    8295
       7    8274    8280       7    8274    8283       7    8274    8286       7
    8307    8319       7    8307    8322       7    8307    8325       7    8304
    8310       7    8304    8313       7    8304    8316       7    8337    8349
       7    8337    8352       7    8337    8355       7    8334    8340       7
    8334    8343       7    8334    8346       7    8367    8379       7    8367
    8382       7    8367    8385       7    8364    8370       7    8364    8373
       7    8364    8376       7    8397    8409       7    8397    8412       7
    8397    8415       7    8394    8400       7    8394    8403       7    8394
    8406       7    8427    8439       7    8427    8442       7    8427    8445
       7    8424    8430       7    8424    8433       7    8424    8436       7
    8457    8469       7    8457    8472       7    8457    8475       7    8454
    8460       7    8454    8463       7    8454    8466       7    8487    8499
       7    8487    8502       7    8487    8505       7    8484    8490       7
    8484    8493       7    8484    8496       7    8517    8529       7    8517
    8532       7    8517    8535       7    8514    8520       7    8514    8523
       7    8514    8526       7    8547    8559       7    8547    8562       7
    8547    8565       7    8544    8550       7    8544    8553       7    8544
    8556       7    8577    8589       7    8577    8592       7    8577    8595
       7    8574    8580       7    8574    8583       7    8574    8586       7
    8607    8619       7    8607    8622       7    8607    8625       7    8604
    8610       7    8604    8613       7    8604    8616       7    8637    8649
       7    8637    8652       7    8637    8655       7    8634    8640       7
    8634    8643       7    8634    8646       7    8667    8679       7    8667
    8682       7    8667    8685       7    8664    8670       7    8664    8673
       7    8664    8676       7    8697    8709       7    8697    8712       7
    8697    8715       7    8694    8700       7    8694    8703       7    8694
    8706       7    8727    8739       7    8727    8742       7    8727    8745
       7    8724    8730       7    8724    8733       7    8724    8736       7
    8757    8769       7    8757    8772       7    8757    8775       7    8754
    8760       7    8754    8763       7    8754    8766       7    8787    8799
       7    8787    8802       7    8787    8805       7    8784    8790       7
    8784    8793       7    8784    8796       7    8817    8829       7    8817
    8832       7    8817    8835       7    8814    8820       7    8814    8823
       7    8814    8826       7    8847    8859       7    8847    8862       7
    8847    8865       7    8844    8850       7    8844    8853       7    8844
    8856       7    8877    8889       7    8877    8892       7    8877    8895
       7    8874    8880       7    8874    8883       7    8874    8886       7
    8907    8919       7    8907    8922       7    8907    8925       7    8904
    8910       7    8904    8913       7    8904    8916       7    8937    8949
       7    8937    8952       7    8937    8955       7    8934    8940       7
    8934    8943       7    8934    8946       7    8967    8979       7    8967
    8982       7    8967    8985       7    8964    8970       7    8964    8973
       7    8964    8976       7    8997    9009       7    8997    9012       7
    8997    9015       7    8994    9000       7    8994    9003       7    8994
    9006       7    9027    9039       7    9027    9042       7    9027    9045
       7    9024    9030       7    9024    9033       7    9024    9036       7
    9057    9069       7    9057    9072       7    9057    9075       7    9054
    9060       7    9054    9063       7    9054    9066       7    9087    9099
       7    9087    9102       7    9087    9105       7    9084    9090       7
    9084    9093       7    9084    9096       7    9117    9129       7    9117
    9132       7    9117    9135       7    9114    9120       7    9114    9123
       7    9114    9126       7    9147    9159       7    9147    9162       7
    9147    9165       7    9144    9150       7    9144    9153       7    9144
    9156       7    9177    9189       7    9177    9192       7    9177    9195
       7    9174    9180       7    9174    9183       7    9174    9186       7
    9207    9219       7    9207    9222       7    9207    9225       7    9204
    9210       7    9204    9213       7    9204    9216       7    9237    9249
       7    9237    9252       7    9237    9255       7    9234    9240       7
    9234    9243       7    9234    9246       7    9267    9279       7    9267
    9282       7    9267    9285       7    9264    9270       7    9264    9273
       7    9264    9276       7    9297    9309       7    9297    9312       7
    9297    9315       7    9294    9300       7    9294    9303       7    9294
    9306       7    9327    9339       7    9327    9342       7    9327    9345
       7    9324    9330       7    9324    9333       7    9324    9336       7
    9357    9369       7    9357    9372       7    9357    9375       7    9354
    9360       7    9354    9363       7    9354    9366       7    9387    9399
       7    9387    9402       7    9387    9405       7    9384    9390       7
    9384    9393       7    9384    9396       7    9417    9429       7    9417
    9432       7    9417    9435       7    9414    9420       7    9414    9423
       7    9414    9426       7    9447    9459       7    9447    9462       7
    9447    9465       7    9444    9450       7    9444    9453       7    9444
    9456       7    9477    9489       7    9477    9492       7    9477    9495
       7    9474    9480       7    9474    9483       7    9474    9486       7
    9507    9519       7    9507    9522       7    9507    9525       7    9504
    9510       7    9504    9513       7    9504    9516       7    9537    9549
       7    9537    9552       7    9537    9555       7    9534    9540       7
    9534    9543       7    9534    9546       7    9567    9579       7    9567
    9582       7    9567    9585       7    9564    9570       7    9564    9573
       7    9564    9576       7    9597    9609       7    9597    9612       7
    9597    9615       7    9594    9600       7    9594    9603       7    9594
    9606       7    9627    9639       7    9627    9642       7    9627    9645
       7    9624    9630       7    9624    9633       7    9624    9636       7
    9657    9669       7    9657    9672       7    9657    9675       7    9654
    9660       7    9654    9663       7    9654    9666       7    9687    9699
       7    9687    9702       7    9687    9705       7    9684    9690       7
    9684    9693       7    9684    9696       7    9717    9729       7    9717
    9732       7    9717    9735       7    9714    9720       7    9714    9723
       7    9714    9726       7    9747    9759       7    9747    9762       7
    9747    9765       7    9744    9750       7    9744    9753       7    9744
    9756       7    9777    9789       7    9777    9792       7    9777    9795
       7    9774    9780       7    9774    9783       7    9774    9786       7
    9807    9819       7    9807    9822       7    9807    9825       7    9804
    9810       7    9804    9813       7    9804    9816       7    9837    9849
       7    9837    9852       7    9837    9855       7    9834    9840       7
    9834    9843       7    9834    9846       7    9867    9879       7    9867
    9882       7    9867    9885       7    9864    9870       7    9864    9873
       7    9864    9876       7    9897    9909       7    9897    9912       7
    9897    9915       7    9894    9900       7    9894    9903       7    9894
    9906       7    9927    9939       7    9927    9942       7    9927    9945
       7    9924    9930       7    9924    9933       7    9924    9936       7
    9957    9969       7    9957    9972       7    9957    9975       7    9954
    9960       7    9954    9963       7    9954    9966       7    9987    9999
       7    9987   10002       7    9987   10005       7    9984    9990       7
    9984    9993       7    9984    9996       7   10017   10029       7   10017
   10032       7   10017   10035       7   10014   10020       7   10014   10023
       7   10014   10026       7   10047   10059       7   10047   10062       7
   10047   10065       7   10044   10050       7   10044   10053       7   10044
   10056       7   10077   10089       7   10077   10092       7   10077   10095
       7   10074   10080       7   10074   10083       7   10074   10086       7
   10107   10119       7   10107   10122       7   10107   10125       7   10104
   10110       7   10104   10113       7   10104   10116       7   10137   10149
       7   10137   10152       7   10137   10155       7   10134   10140       7
   10134   10143       7   10134   10146       7   10167   10179       7   10167
   10182       7   10167   10185       7   10164   10170       7   10164   10173
       7   10164   10176       7   10197   10209       7   10197   10212       7
   10197   10215       7   10194   10200       7   10194   10203       7   10194
   10206       7   10227   10239       7   10227   10242       7   10227   10245
       7   10224   10230       7   10224   10233       7   10224   10236       7
   10257   10269       7   10257   10272       7   10257   10275       7   10254
   10260       7   10254   10263       7   10254   10266       7   10287   10299
       7   10287   10302       7   10287   10305       7   10284   10290       7
   10284   10293       7   10284   10296       7
%FLAG BONDS_WITHOUT_HYDROGEN                                                    
%FORMAT(10I8)                                                                   
      63      69       2      60      66       2      57      69       2      54
      66       2      51      63       2      48      60       2      39      57
       2      36      54       2      33      39       2      33      45       3
      33      51       2      30      36       2      30      42       3      30
      48       2      21      24       2      18      27       2      15      21
       2      15      27       2      15      45       3      12      18       2
      12      24       2      12      42       3       9      21       4       9
      39       4       6      18       4       6      36       4       3      45
       6       0      42       6     108     111       8     108     114       9
     108     117       9     138     141       8     138     144       9     138
     147       9     168     171       8     168     174       9     168     177
       9     198     201       8     198     204       9     198     207       9
     228     231       8     228     234       9     228     237       9     258
     261       8     258     264       9     258     267       9     288     291
       8     288     294       9     288     297       9     318     321       8
     318     324       9     318     327       9     348     351       8     348
     354       9     348     357       9     378     381       8     378     384
       9     378     387       9     408     411       8     408     414       9
     408     417       9     438     441       8     438     444       9     438
     447       9     468     471       8     468     474       9     468     477
       9     498     501       8     498     504       9     498     507       9
     528     531       8     528     534       9     528     537       9     558
     561       8     558     564       9     558     567       9     588     591
       8     588     594       9     588     597       9     618     621       8
     618     624       9     618     627       9     648     651       8     648
     654       9     648     657       9     678     681       8     678     684
       9     678     687       9     708     711       8     708     714       9
     708     717       9     738     741       8     738     744       9     738
     747       9     768     771       8     768     774       9     768     777
       9     798     801       8     798     804       9     798     807       9
     828     831       8     828     834       9     828     837       9     858
     861       8     858     864       9     858     867       9     888     891
       8     888     894       9     888     897       9     918     921       8
     918     924       9     918     927       9     948     951       8     948
     954       9     948     957       9     978     981       8     978     984
       9     978     987       9    1008    1011       8    1008    1014       9
    1008    1017       9    1038    1041       8    1038    1044       9    1038
    1047       9    1068    1071       8    1068    1074       9    1068    1077
       9    1098    1101       8    1098    1104       9    1098    1107       9
    1128    1131       8    1128    1134       9    1128    1137       9    1158
    1161       8    1158    1164       9    1158    1167       9    1188    1191
       8    1188    1194       9    1188    1197       9    1218    1221       8
    1218    1224       9    1218    1227       9    1248    1251       8    1248
    1254       9    1248    1257       9    1278    1281       8    1278    1284
       9    1278    1287       9    1308    1311       8    1308    1314       9
    1308    1317       9    1338    1341       8    1338    1344       9    1338
    1347       9    1368    1371       8    1368    1374       9    1368    1377
       9    1398    1401       8    1398    1404       9    1398    1407       9
    1428    1431       8    1428    1434       9    1428    1437       9    1458
    1461       8    1458    1464       9    1458    1467       9    1488    1491
       8    1488    1494       9    1488    1497       9    1518    1521       8
    1518    1524       9    1518    1527       9    1548    1551       8    1548
    1554       9    1548    1557       9    1578    1581       8    1578    1584
       9    1578    1587       9    1608    1611       8    1608    1614       9
    1608    1617       9    1638    1641       8    1638    1644       9    1638
    1647       9    1668    1671       8    1668    1674       9    1668    1677
       9    1698    1701       8    1698    1704       9    1698    1707       9
    1728    1731       8    1728    1734       9    1728    1737       9    1758
    1761       8    1758    1764       9    1758    1767       9    1788    1791
       8    1788    1794       9    1788    1797       9    1818    1821       8
    1818    1824       9    1818    1827       9    1848    1851       8    1848
    1854       9    1848    1857       9    1878    1881       8    1878    1884
       9    1878    1887       9    1908    1911       8    1908    1914       9
    1908    1917       9    1938    1941       8    1938    1944       9    1938
    1947       9    1968    1971       8    1968    1974       9    1968    1977
       9    1998    2001       8    1998    2004       9    1998    2007       9
    2028    2031       8    2028    2034       9    2028    2037       9    2058
    2061       8    2058    2064       9    2058    2067       9    2088    2091
       8    2088    2094       9    2088    2097       9    2118    2121       8
    2118    2124       9    2118    2127       9    2148    2151       8    2148
    2154       9    2148    2157       9    2178    2181       8    2178    2184
       9    2178    2187       9    2208    2211       8    2208    2214       9
    2208    2217       9    2238    2241       8    2238    2244       9    2238
    2247       9    2268    2271       8    2268    2274       9    2268    2277
       9    2298    2301       8    2298    2304       9    2298    2307       9
    2328    2331       8    2328    2334       9    2328    2337       9    2358
    2361       8    2358    2364       9    2358    2367       9    2388    2391
       8    2388    2394       9    2388    2397       9    2418    2421       8
    2418    2424       9    2418    2427       9    2448    2451       8    2448
    2454       9    2448    2457       9    2478    2481       8    2478    2484
       9    2478    2487       9    2508    2511       8    2508    2514       9
    2508    2517       9    2538    2541       8    2538    2544       9    2538
    2547       9    2568    2571       8    2568    2574       9    2568    2577
       9    2598    2601       8    2598    2604       9    2598    2607       9
    2628    2631       8    2628    2634       9    2628    2637       9    2658
    2661       8    2658    2664       9    2658    2667       9    2688    2691
       8    2688    2694       9    2688    2697       9    2718    2721       8
    2718    2724       9    2718    2727       9    2748    2751       8    2748
    2754       9    2748    2757       9    2778    2781       8    2778    2784
       9    2778    2787       9    2808    2811       8    2808    2814       9
    2808    2817       9    2838    2841       8    2838    2844       9    2838
    2847       9    2868    2871       8    2868    2874       9    2868    2877
       9    2898    2901       8    2898    2904       9    2898    2907       9
    2928    2931       8    2928    2934       9    2928    2937       9    2958
    2961       8    2958    2964       9    2958    2967       9    2988    2991
       8    2988    2994       9    2988    2997       9    3018    3021       8
    3018    3024       9    3018    3027       9    3048    3051       8    3048
    3054       9    3048    3057       9    3078    3081       8    3078    3084
       9    3078    3087       9    3108    3111       8    3108    3114       9
    3108    3117       9    3138    3141       8    3138    3144       9    3138
    3147       9    3168    3171       8    3168    3174       9    3168    3177
       9    3198    3201       8    3198    3204       9    3198    3207       9
    3228    3231       8    3228    3234       9    3228    3237       9    3258
    3261       8    3258    3264       9    3258    3267       9    3288    3291
       8    3288    3294       9    3288    3297       9    3318    3321       8
    3318    3324       9    3318    3327       9    3348    3351       8    3348
    3354       9    3348    3357       9    3378    3381       8    3378    3384
       9    3378    3387       9    3408    3411       8    3408    3414       9
    3408    3417       9    3438    3441       8    3438    3444       9    3438
    3447       9    3468    3471       8    3468    3474       9    3468    3477
       9    3498    3501       8    3498    3504       9    3498    3507       9
    3528    3531       8    3528    3534       9    3528    3537       9    3558
    3561       8    3558    3564       9    3558    3567       9    3588    3591
       8    3588    3594       9    3588    3597       9    3618    3621       8
    3618    3624       9    3618    3627       9    3648    3651       8    3648
    3654       9    3648    3657       9    3678    3681       8    3678    3684
       9    3678    3687       9    3708    3711       8    3708    3714       9
    3708    3717       9    3738    3741       8    3738    3744       9    3738
    3747       9    3768    3771       8    3768    3774       9    3768    3777
       9    3798    3801       8    3798    3804       9    3798    3807       9
    3828    3831       8    3828    3834       9    3828    3837       9    3858
    3861       8    3858    3864       9    3858    3867       9    3888    3891
       8    3888    3894       9    3888    3897       9    3918    3921       8
    3918    3924       9    3918    3927       9    3948    3951       8    3948
    3954       9    3948    3957       9    3978    3981       8    3978    3984
       9    3978    3987       9    4008    4011       8    4008    4014       9
    4008    4017       9    4038    4041       8    4038    4044       9    4038
    4047       9    4068    4071       8    4068    4074       9    4068    4077
       9    4098    4101       8    4098    4104       9    4098    4107       9
    4128    4131       8    4128    4134       9    4128    4137       9    4158
    4161       8    4158    4164       9    4158    4167       9    4188    4191
       8    4188    4194       9    4188    4197       9    4218    4221       8
    4218    4224       9    4218    4227       9    4248    4251       8    4248
    4254       9    4248    4257       9    4278    4281       8    4278    4284
       9    4278    4287       9    4308    4311       8    4308    4314       9
    4308    4317       9    4338    4341       8    4338    4344       9    4338
    4347       9    4368    4371       8    4368    4374       9    4368    4377
       9    4398    4401       8    4398    4404       9    4398    4407       9
    4428    4431       8    4428    4434       9    4428    4437       9    4458
    4461       8    4458    4464       9    4458    4467       9    4488    4491
       8    4488    4494       9    4488    4497       9    4518    4521       8
    4518    4524       9    4518    4527       9    4548    4551       8    4548
    4554       9    4548    4557       9    4578    4581       8    4578    4584
       9    4578    4587       9    4608    4611       8    4608    4614       9
    4608    4617       9    4638    4641       8    4638    4644       9    4638
    4647       9    4668    4671       8    4668    4674       9    4668    4677
       9    4698    4701       8    4698    4704       9    4698    4707       9
    4728    4731       8    4728    4734       9    4728    4737       9    4758
    4761       8    4758    4764       9    4758    4767       9    4788    4791
       8    4788    4794       9    4788    4797       9    4818    4821       8
    4818    4824       9    4818    4827       9    4848    4851       8    4848
    4854       9    4848    4857       9    4878    4881       8    4878    4884
       9    4878    4887       9    4908    4911       8    4908    4914       9
    4908    4917       9    4938    4941       8    4938    4944       9    4938
    4947       9    4968    4971       8    4968    4974       9    4968    4977
       9    4998    5001       8    4998    5004       9    4998    5007       9
    5028    5031       8    5028    5034       9    5028    5037       9    5058
    5061       8    5058    5064       9    5058    5067       9    5088    5091
       8    5088    5094       9    5088    5097       9    5118    5121       8
    5118    5124       9    5118    5127       9    5148    5151       8    5148
    5154       9    5148    5157       9    5178    5181       8    5178    5184
       9    5178    5187       9    5208    5211       8    5208    5214       9
    5208    5217       9    5238    5241       8    5238    5244       9    5238
    5247       9    5268    5271       8    5268    5274       9    5268    5277
       9    5298    5301       8    5298    5304       9    5298    5307       9
    5328    5331       8    5328    5334       9    5328    5337       9    5358
    5361       8    5358    5364       9    5358    5367       9    5388    5391
       8    5388    5394       9    5388    5397       9    5418    5421       8
    5418    5424       9    5418    5427       9    5448    5451       8    5448
    5454       9    5448    5457       9    5478    5481       8    5478    5484
       9    5478    5487       9    5508    5511       8    5508    5514       9
    5508    5517       9    5538    5541       8    5538    5544       9    5538
    5547       9    5568    5571       8    5568    5574       9    5568    5577
       9    5598    5601       8    5598    5604       9    5598    5607       9
    5628    5631       8    5628    5634       9    5628    5637       9    5658
    5661       8    5658    5664       9    5658    5667       9    5688    5691
       8    5688    5694       9    5688    5697       9    5718    5721       8
    5718    5724       9    5718    5727       9    5748    5751       8    5748
    5754       9    5748    5757       9    5778    5781       8    5778    5784
       9    5778    5787       9    5808    5811       8    5808    5814       9
    5808    5817       9    5838    5841       8    5838    5844       9    5838
    5847       9    5868    5871       8    5868    5874       9    5868    5877
       9    5898    5901       8    5898    5904       9    5898    5907       9
    5928    5931       8    5928    5934       9    5928    5937       9    5958
    5961       8    5958    5964       9    5958    5967       9    5988    5991
       8    5988    5994       9    5988    5997       9    6018    6021       8
    6018    6024       9    6018    6027       9    6048    6051       8    6048
    6054       9    6048    6057       9    6078    6081       8    6078    6084
       9    6078    6087       9    6108    6111       8    6108    6114       9
    6108    6117       9    6138    6141       8    6138    6144       9    6138
    6147       9    6168    6171       8    6168    6174       9    6168    6177
       9    6198    6201       8    6198    6204       9    6198    6207       9
    6228    6231       8    6228    6234       9    6228    6237       9    6258
    6261       8    6258    6264       9    6258    6267       9    6288    6291
       8    6288    6294       9    6288    6297       9    6318    6321       8
    6318    6324       9    6318    6327       9    6348    6351       8    6348
    6354       9    6348    6357       9    6378    6381       8    6378    6384
       9    6378    6387       9    6408    6411       8    6408    6414       9
    6408    6417       9    6438    6441       8    6438    6444       9    6438
    6447       9    6468    6471       8    6468    6474       9    6468    6477
       9    6498    6501       8    6498    6504       9    6498    6507       9
    6528    6531       8    6528    6534       9    6528    6537       9    6558
    6561       8    6558    6564       9    6558    6567       9    6588    6591
       8    6588    6594       9    6588    6597       9    6618    6621       8
    6618    6624       9    6618    6627       9    6648    6651       8    6648
    6654       9    6648    6657       9    6678    6681       8    6678    6684
       9    6678    6687       9    6708    6711       8    6708    6714       9
    6708    6717       9    6738    6741       8    6738    6744       9    6738
    6747       9    6768    6771       8    6768    6774       9    6768    6777
       9    6798    6801       8    6798    6804       9    6798    6807       9
    6828    6831       8    6828    6834       9    6828    6837       9    6858
    6861       8    6858    6864       9    6858    6867       9    6888    6891
       8    6888    6894       9    6888    6897       9    6918    6921       8
    6918    6924       9    6918    6927       9    6948    6951       8    6948
    6954       9    6948    6957       9    6978    6981       8    6978    6984
       9    6978    6987       9    7008    7011       8    7008    7014       9
    7008    7017       9    7038    7041       8    7038    7044       9    7038
    7047       9    7068    7071       8    7068    7074       9    7068    7077
       9    7098    7101       8    7098    7104       9    7098    7107       9
    7128    7131       8    7128    7134       9    7128    7137       9    7158
    7161       8    7158    7164       9    7158    7167       9    7188    7191
       8    7188    7194       9    7188    7197       9    7218    7221       8
    7218    7224       9    7218    7227       9    7248    7251       8    7248
    7254       9    7248    7257       9    7278    7281       8    7278    7284
       9    7278    7287       9    7308    7311       8    7308    7314       9
    7308    7317       9    7338    7341       8    7338    7344       9    7338
    7347       9    7368    7371       8    7368    7374       9    7368    7377
       9    7398    7401       8    7398    7404       9    7398    7407       9
    7428    7431       8    7428    7434       9    7428    7437       9    7458
    7461       8    7458    7464       9    7458    7467       9    7488    7491
       8    7488    7494       9    7488    7497       9    7518    7521       8
    7518    7524       9    7518    7527       9    7548    7551       8    7548
    7554       9    7548    7557       9    7578    7581       8    7578    7584
       9    7578    7587       9    7608    7611       8    7608    7614       9
    7608    7617       9    7638    7641       8    7638    7644       9    7638
    7647       9    7668    7671       8    7668    7674       9    7668    7677
       9    7698    7701       8    7698    7704       9    7698    7707       9
    7728    7731       8    7728    7734       9    7728    7737       9    7758
    7761       8    7758    7764       9    7758    7767       9    7788    7791
       8    7788    7794       9    7788    7797       9    7818    7821       8
    7818    7824       9    7818    7827       9    7848    7851       8    7848
    7854       9    7848    7857       9    7878    7881       8    7878    7884
       9    7878    7887       9    7908    7911       8    7908    7914       9
    7908    7917       9    7938    7941       8    7938    7944       9    7938
    7947       9    7968    7971       8    7968    7974       9    7968    7977
       9    7998    8001       8    7998    8004       9    7998    8007       9
    8028    8031       8    8028    8034       9    8028    8037       9    8058
    8061       8    8058    8064       9    8058    8067       9    8088    8091
       8    8088    8094       9    8088    8097       9    8118    8121       8
    8118    8124       9    8118    8127       9    8148    8151       8    8148
    8154       9    8148    8157       9    8178    8181       8    8178    8184
       9    8178    8187       9    8208    8211       8    8208    8214       9
    8208    8217       9    8238    8241       8    8238    8244       9    8238
    8247       9    8268    8271       8    8268    8274       9    8268    8277
       9    8298    8301       8    8298    8304       9    8298    8307       9
    8328    8331       8    8328    8334       9    8328    8337       9    8358
    8361       8    8358    8364       9    8358    8367       9    8388    8391
       8    8388    8394       9    8388    8397       9    8418    8421       8
    8418    8424       9    8418    8427       9    8448    8451       8    8448
    8454       9    8448    8457       9    8478    8481       8    8478    8484
       9    8478    8487       9    8508    8511       8    8508    8514       9
    8508    8517       9    8538    8541       8    8538    8544       9    8538
    8547       9    8568    8571       8    8568    8574       9    8568    8577
       9    8598    8601       8    8598    8604       9    8598    8607       9
    8628    8631       8    8628    8634       9    8628    8637       9    8658
    8661       8    8658    8664       9    8658    8667       9    8688    8691
       8    8688    8694       9    8688    8697       9    8718    8721       8
    8718    8724       9    8718    8727       9    8748    8751       8    8748
    8754       9    8748    8757       9    8778    8781       8    8778    8784
       9    8778    8787       9    8808    8811       8    8808    8814       9
    8808    8817       9    8838    8841       8    8838    8844       9    8838
    8847       9    8868    8871       8    8868    8874       9    8868    8877
       9    8898    8901       8    8898    8904       9    8898    8907       9
    8928    8931       8    8928    8934       9    8928    8937       9    8958
    8961       8    8958    8964       9    8958    8967       9    8988    8991
       8    8988    8994       9    8988    8997       9    9018    9021       8
    9018    9024       9    9018    9027       9    9048    9051       8    9048
    9054       9    9048    9057       9    9078    9081       8    9078    9084
       9    9078    9087       9    9108    9111       8    9108    9114       9
    9108    9117       9    9138    9141       8    9138    9144       9    9138
    9147       9    9168    9171       8    9168    9174       9    9168    9177
       9    9198    9201       8    9198    9204       9    9198    9207       9
    9228    9231       8    9228    9234       9    9228    9237       9    9258
    9261       8    9258    9264       9    9258    9267       9    9288    9291
       8    9288    9294       9    9288    9297       9    9318    9321       8
    9318    9324       9    9318    9327       9    9348    9351       8    9348
    9354       9    9348    9357       9    9378    9381       8    9378    9384
       9    9378    9387       9    9408    9411       8    9408    9414       9
    9408    9417       9    9438    9441       8    9438    9444       9    9438
    9447       9    9468    9471       8    9468    9474       9    9468    9477
       9    9498    9501       8    9498    9504       9    9498    9507       9
    9528    9531       8    9528    9534       9    9528    9537       9    9558
    9561       8    9558    9564       9    9558    9567       9    9588    9591
       8    9588    9594       9    9588    9597       9    9618    9621       8
    9618    9624       9    9618    9627       9    9648    9651       8    9648
    9654       9    9648    9657       9    9678    9681       8    9678    9684
       9    9678    9687       9    9708    9711       8    9708    9714       9
    9708    9717       9    9738    9741       8    9738    9744       9    9738
    9747       9    9768    9771       8    9768    9774       9    9768    9777
       9    9798    9801       8    9798    9804       9    9798    9807       9
    9828    9831       8    9828    9834       9    9828    9837       9    9858
    9861       8    9858    9864       9    9858    9867       9    9888    9891
       8    9888    9894       9    9888    9897       9    9918    9921       8
    9918    9924       9    9918    9927       9    9948    9951       8    9948
    9954       9    9948    9957       9    9978    9981       8    9978    9984
       9    9978    9987       9   10008   10011       8   10008   10014       9
   10008   10017       9   10038   10041       8   10038   10044       9   10038
   10047       9   10068   10071       8   10068   10074       9   10068   10077
       9   10098   10101       8   10098   10104       9   10098   10107       9
   10128   10131       8   10128   10134       9   10128   10137       9   10158
   10161       8   10158   10164       9   10158   10167       9   10188   10191
       8   10188   10194       9   10188   10197       9   10218   10221       8
   10218   10224       9   10218   10227       9   10248   10251       8   10248
   10254       9   10248   10257       9   10278   10281       8   10278   10284
       9   10278   10287       9
%FLAG ANGLES_INC_HYDROGEN                                                       
%FORMAT(10I8)                                                                   
      69      57      93       1      69      63      99       1      66      54
      90       1      66      60      96       1      63      51      87       1
      63      69     105       1      60      48      84       1      60      66
     102       1      57      69     105       1      54      66     102       1
      51      63      99       1      48      60      96       1      39       9
      81       4      39      57      93       1      36       6      78       4
      36      54      90       1      33      51      87       1      30      48
      84       1      21       9      81       4      21      24      72       1
      18       6      78       4      18      27      75       1      15      27
      75       1      12      24      72       1     132     117     135       9
     129     117     132       9     129     117     135       9     123     114
     126       9     120     114     123       9     120     114     126       9
     108     114     120      12     108     114     123      12     108     114
     126      12     108     117     129      12     108     117     132      12
     108     117     135      12     162     147     165       9     159     147
     162       9     159     147     165       9     153     144     156       9
     150     144     153       9     150     144     156       9     138     144
     150      12     138     144     153      12     138     144     156      12
     138     147     159      12     138     147     162      12     138     147
     165      12     192     177     195       9     189     177     192       9
     189     177     195       9     183     174     186       9     180     174
     183       9     180     174     186       9     168     174     180      12
     168     174     183      12     168     174     186      12     168     177
     189      12     168     177     192      12     168     177     195      12
     222     207     225       9     219     207     222       9     219     207
     225       9     213     204     216       9     210     204     213       9
     210     204     216       9     198     204     210      12     198     204
     213      12     198     204     216      12     198     207     219      12
     198     207     222      12     198     207     225      12     252     237
     255       9     249     237     252       9     249     237     255       9
     243     234     246       9     240     234     243       9     240     234
     246       9     228     234     240      12     228     234     243      12
     228     234     246      12     228     237     249      12     228     237
     252      12     228     237     255      12     282     267     285       9
     279     267     282       9     279     267     285       9     273     264
     276       9     270     264     273       9     270     264     276       9
     258     264     270      12     258     264     273      12     258     264
     276      12     258     267     279      12     258     267     282      12
     258     267     285      12     312     297     315       9     309     297
     312       9     309     297     315       9     303     294     306       9
     300     294     303       9     300     294     306       9     288     294
     300      12     288     294     303      12     288     294     306      12
     288     297     309      12     288     297     312      12     288     297
     315      12     342     327     345       9     339     327     342       9
     339     327     345       9     333     324     336       9     330     324
     333       9     330     324     336       9     318     324     330      12
     318     324     333      12     318     324     336      12     318     327
     339      12     318     327     342      12     318     327     345      12
     372     357     375       9     369     357     372       9     369     357
     375       9     363     354     366       9     360     354     363       9
     360     354     366       9     348     354     360      12     348     354
     363      12     348     354     366      12     348     357     369      12
     348     357     372      12     348     357     375      12     402     387
     405       9     399     387     402       9     399     387     405       9
     393     384     396       9     390     384     393       9     390     384
     396       9     378     384     390      12     378     384     393      12
     378     384     396      12     378     387     399      12     378     387
     402      12     378     387     405      12     432     417     435       9
     429     417     432       9     429     417     435       9     423     414
     426       9     420     414     423       9     420     414     426       9
     408     414     420      12     408     414     423      12     408     414
     426      12     408     417     429      12     408     417     432      12
     408     417     435      12     462     447     465       9     459     447
     462       9     459     447     465       9     453     444     456       9
     450     444     453       9     450     444     456       9     438     444
     450      12     438     444     453      12     438     444     456      12
     438     447     459      12     438     447     462      12     438     447
     465      12     492     477     495       9     489     477     492       9
     489     477     495       9     483     474     486       9     480     474
     483       9     480     474     486       9     468     474     480      12
     468     474     483      12     468     474     486      12     468     477
     489      12     468     477     492      12     468     477     495      12
     522     507     525       9     519     507     522       9     519     507
     525       9     513     504     516       9     510     504     513       9
     510     504     516       9     498     504     510      12     498     504
     513      12     498     504     516      12     498     507     519      12
     498     507     522      12     498     507     525      12     552     537
     555       9     549     537     552       9     549     537     555       9
     543     534     546       9     540     534     543       9     540     534
     546       9     528     534     540      12     528     534     543      12
     528     534     546      12     528     537     549      12     528     537
     552      12     528     537     555      12     582     567     585       9
     579     567     582       9     579     567     585       9     573     564
     576       9     570     564     573       9     570     564     576       9
     558     564     570      12     558     564     573      12     558     564
     576      12     558     567     579      12     558     567     582      12
     558     567     585      12     612     597     615       9     609     597
     612       9     609     597     615       9     603     594     606       9
     600     594     603       9     600     594     606       9     588     594
     600      12     588     594     603      12     588     594     606      12
     588     597     609      12     588     597     612      12     588     597
     615      12     642     627     645       9     639     627     642       9
     639     627     645       9     633     624     636       9     630     624
     633       9     630     624     636       9     618     624     630      12
     618     624     633      12     618     624     636      12     618     627
     639      12     618     627     642      12     618     627     645      12
     672     657     675       9     669     657     672       9     669     657
     675       9     663     654     666       9     660     654     663       9
     660     654     666       9     648     654     660      12     648     654
     663      12     648     654     666      12     648     657     669      12
     648     657     672      12     648     657     675      12     702     687
     705       9     699     687     702       9     699     687     705       9
     693     684     696       9     690     684     693       9     690     684
     696       9     678     684     690      12     678     684     693      12
     678     684     696      12     678     687     699      12     678     687
     702      12     678     687     705      12     732     717     735       9
     729     717     732       9     729     717     735       9     723     714
     726       9     720     714     723       9     720     714     726       9
     708     714     720      12     708     714     723      12     708     714
     726      12     708     717     729      12     708     717     732      12
     708     717     735      12     762     747     765       9     759     747
     762       9     759     747     765       9     753     744     756       9
     750     744     753       9     750     744     756       9     738     744
     750      12     738     744     753      12     738     744     756      12
     738     747     759      12     738     747     762      12     738     747
     765      12     792     777     795       9     789     777     792       9
     789     777     795       9     783     774     786       9     780     774
     783       9     780     774     786       9     768     774     780      12
     768     774     783      12     768     774     786      12     768     777
     789      12     768     777     792      12     768     777     795      12
     822     807     825       9     819     807     822       9     819     807
     825       9     813     804     816       9     810     804     813       9
     810     804     816       9     798     804     810      12     798     804
     813      12     798     804     816      12     798     807     819      12
     798     807     822      12     798     807     825      12     852     837
     855       9     849     837     852       9     849     837     855       9
     843     834     846       9     840     834     843       9     840     834
     846       9     828     834     840      12     828     834     843      12
     828     834     846      12     828     837     849      12     828     837
     852      12     828     837     855      12     882     867     885       9
     879     867     882       9     879     867     885       9     873     864
     876       9     870     864     873       9     870     864     876       9
     858     864     870      12     858     864     873      12     858     864
     876      12     858     867     879      12     858     867     882      12
     858     867     885      12     912     897     915       9     909     897
     912       9     909     897     915       9     903     894     906       9
     900     894     903       9     900     894     906       9     888     894
     900      12     888     894     903      12     888     894     906      12
     888     897     909      12     888     897     912      12     888     897
     915      12     942     927     945       9     939     927     942       9
     939     927     945       9     933     924     936       9     930     924
     933       9     930     924     936       9     918     924     930      12
     918     924     933      12     918     924     936      12     918     927
     939      12     918     927     942      12     918     927     945      12
     972     957     975       9     969     957     972       9     969     957
     975       9     963     954     966       9     960     954     963       9
     960     954     966       9     948     954     960      12     948     954
     963      12     948     954     966      12     948     957     969      12
     948     957     972      12     948     957     975      12    1002     987
    1005       9     999     987    1002       9     999     987    1005       9
     993     984     996       9     990     984     993       9     990     984
     996       9     978     984     990      12     978     984     993      12
     978     984     996      12     978     987     999      12     978     987
    1002      12     978     987    1005      12    1032    1017    1035       9
    1029    1017    1032       9    1029    1017    1035       9    1023    1014
    1026       9    1020    1014    1023       9    1020    1014    1026       9
    1008    1014    1020      12    1008    1014    1023      12    1008    1014
    1026      12    1008    1017    1029      12    1008    1017    1032      12
    1008    1017    1035      12    1062    1047    1065       9    1059    1047
    1062       9    1059    1047    1065       9    1053    1044    1056       9
    1050    1044    1053       9    1050    1044    1056       9    1038    1044
    1050      12    1038    1044    1053      12    1038    1044    1056      12
    1038    1047    1059      12    1038    1047    1062      12    1038    1047
    1065      12    1092    1077    1095       9    1089    1077    1092       9
    1089    1077    1095       9    1083    1074    1086       9    1080    1074
    1083       9    1080    1074    1086       9    1068    1074    1080      12
    1068    1074    1083      12    1068    1074    1086      12    1068    1077
    1089      12    1068    1077    1092      12    1068    1077    1095      12
    1122    1107    1125       9    1119    1107    1122       9    1119    1107
    1125       9    1113    1104    1116       9    1110    1104    1113       9
    1110    1104    1116       9    1098    1104    1110      12    1098    1104
    1113      12    1098    1104    1116      12    1098    1107    1119      12
    1098    1107    1122      12    1098    1107    1125      12    1152    1137
    1155       9    1149    1137    1152       9    1149    1137    1155       9
    1143    1134    1146       9    1140    1134    1143       9    1140    1134
    1146       9    1128    1134    1140      12    1128    1134    1143      12
    1128    1134    1146      12    1128    1137    1149      12    1128    1137
    1152      12    1128    1137    1155      12    1182    1167    1185       9
    1179    1167    1182       9    1179    1167    1185       9    1173    1164
    1176       9    1170    1164    1173       9    1170    1164    1176       9
    1158    1164    1170      12    1158    1164    1173      12    1158    1164
    1176      12    1158    1167    1179      12    1158    1167    1182      12
    1158    1167    1185      12    1212    1197    1215       9    1209    1197
    1212       9    1209    1197    1215       9    1203    1194    1206       9
    1200    1194    1203       9    1200    1194    1206       9    1188    1194
    1200      12    1188    1194    1203      12    1188    1194    1206      12
    1188    1197    1209      12    1188    1197    1212      12    1188    1197
    1215      12    1242    1227    1245       9    1239    1227    1242       9
    1239    1227    1245       9    1233    1224    1236       9    1230    1224
    1233       9    1230    1224    1236       9    1218    1224    1230      12
    1218    1224    1233      12    1218    1224    1236      12    1218    1227
    1239      12    1218    1227    1242      12    1218    1227    1245      12
    1272    1257    1275       9    1269    1257    1272       9    1269    1257
    1275       9    1263    1254    1266       9    1260    1254    1263       9
    1260    1254    1266       9    1248    1254    1260      12    1248    1254
    1263      12    1248    1254    1266      12    1248    1257    1269      12
    1248    1257    1272      12    1248    1257    1275      12    1302    1287
    1305       9    1299    1287    1302       9    1299    1287    1305       9
    1293    1284    1296       9    1290    1284    1293       9    1290    1284
    1296       9    1278    1284    1290      12    1278    1284    1293      12
    1278    1284    1296      12    1278    1287    1299      12    1278    1287
    1302      12    1278    1287    1305      12    1332    1317    1335       9
    1329    1317    1332       9    1329    1317    1335       9    1323    1314
    1326       9    1320    1314    1323       9    1320    1314    1326       9
    1308    1314    1320      12    1308    1314    1323      12    1308    1314
    1326      12    1308    1317    1329      12    1308    1317    1332      12
    1308    1317    1335      12    1362    1347    1365       9    1359    1347
    1362       9    1359    1347    1365       9    1353    1344    1356       9
    1350    1344    1353       9    1350    1344    1356       9    1338    1344
    1350      12    1338    1344    1353      12    1338    1344    1356      12
    1338    1347    1359      12    1338    1347    1362      12    1338    1347
    1365      12    1392    1377    1395       9    1389    1377    1392       9
    1389    1377    1395       9    1383    1374    1386       9    1380    1374
    1383       9    1380    1374    1386       9    1368    1374    1380      12
    1368    1374    1383      12    1368    1374    1386      12    1368    1377
    1389      12    1368    1377    1392      12    1368    1377    1395      12
    1422    1407    1425       9    1419    1407    1422       9    1419    1407
    1425       9    1413    1404    1416       9    1410    1404    1413       9
    1410    1404    1416       9    1398    1404    1410      12    1398    1404
    1413      12    1398    1404    1416      12    1398    1407    1419      12
    1398    1407    1422      12    1398    1407    1425      12    1452    1437
    1455       9    1449    1437    1452       9    1449    1437    1455       9
    1443    1434    1446       9    1440    1434    1443       9    1440    1434
    1446       9    1428    1434    1440      12    1428    1434    1443      12
    1428    1434    1446      12    1428    1437    1449      12    1428    1437
    1452      12    1428    1437    1455      12    1482    1467    1485       9
    1479    1467    1482       9    1479    1467    1485       9    1473    1464
    1476       9    1470    1464    1473       9    1470    1464    1476       9
    1458    1464    1470      12    1458    1464    1473      12    1458    1464
    1476      12    1458    1467    1479      12    1458    1467    1482      12
    1458    1467    1485      12    1512    1497    1515       9    1509    1497
    1512       9    1509    1497    1515       9    1503    1494    1506       9
    1500    1494    1503       9    1500    1494    1506       9    1488    1494
    1500      12    1488    1494    1503      12    1488    1494    1506      12
    1488    1497    1509      12    1488    1497    1512      12    1488    1497
    1515      12    1542    1527    1545       9    1539    1527    1542       9
    1539    1527    1545       9    1533    1524    1536       9    1530    1524
    1533       9    1530    1524    1536       9    1518    1524    1530      12
    1518    1524    1533      12    1518    1524    1536      12    1518    1527
    1539      12    1518    1527    1542      12    1518    1527    1545      12
    1572    1557    1575       9    1569    1557    1572       9    1569    1557
    1575       9    1563    1554    1566       9    1560    1554    1563       9
    1560    1554    1566       9    1548    1554    1560      12    1548    1554
    1563      12    1548    1554    1566      12    1548    1557    1569      12
    1548    1557    1572      12    1548    1557    1575      12    1602    1587
    1605       9    1599    1587    1602       9    1599    1587    1605       9
    1593    1584    1596       9    1590    1584    1593       9    1590    1584
    1596       9    1578    1584    1590      12    1578    1584    1593      12
    1578    1584    1596      12    1578    1587    1599      12    1578    1587
    1602      12    1578    1587    1605      12    1632    1617    1635       9
    1629    1617    1632       9    1629    1617    1635       9    1623    1614
    1626       9    1620    1614    1623       9    1620    1614    1626       9
    1608    1614    1620      12    1608    1614    1623      12    1608    1614
    1626      12    1608    1617    1629      12    1608    1617    1632      12
    1608    1617    1635      12    1662    1647    1665       9    1659    1647
    1662       9    1659    1647    1665       9    1653    1644    1656       9
    1650    1644    1653       9    1650    1644    1656       9    1638    1644
    1650      12    1638    1644    1653      12    1638    1644    1656      12
    1638    1647    1659      12    1638    1647    1662      12    1638    1647
    1665      12    1692    1677    1695       9    1689    1677    1692       9
    1689    1677    1695       9    1683    1674    1686       9    1680    1674
    1683       9    1680    1674    1686       9    1668    1674    1680      12
    1668    1674    1683      12    1668    1674    1686      12    1668    1677
    1689      12    1668    1677    1692      12    1668    1677    1695      12
    1722    1707    1725       9    1719    1707    1722       9    1719    1707
    1725       9    1713    1704    1716       9    1710    1704    1713       9
    1710    1704    1716       9    1698    1704    1710      12    1698    1704
    1713      12    1698    1704    1716      12    1698    1707    1719      12
    1698    1707    1722      12    1698    1707    1725      12    1752    1737
    1755       9    1749    1737    1752       9    1749    1737    1755       9
    1743    1734    1746       9    1740    1734    1743       9    1740    1734
    1746       9    1728    1734    1740      12    1728    1734    1743      12
    1728    1734    1746      12    1728    1737    1749      12    1728    1737
    1752      12    1728    1737    1755      12    1782    1767    1785       9
    1779    1767    1782       9    1779    1767    1785       9    1773    1764
    1776       9    1770    1764    1773       9    1770    1764    1776       9
    1758    1764    1770      12    1758    1764    1773      12    1758    1764
    1776      12    1758    1767    1779      12    1758    1767    1782      12
    1758    1767    1785      12    1812    1797    1815       9    1809    1797
    1812       9    1809    1797    1815       9    1803    1794    1806       9
    1800    1794    1803       9    1800    1794    1806       9    1788    1794
    1800      12    1788    1794    1803      12    1788    1794    1806      12
    1788    1797    1809      12    1788    1797    1812      12    1788    1797
    1815      12    1842    1827    1845       9    1839    1827    1842       9
    1839    1827    1845       9    1833    1824    1836       9    1830    1824
    1833       9    1830    1824    1836       9    1818    1824    1830      12
    1818    1824    1833      12    1818    1824    1836      12    1818    1827
    1839      12    1818    1827    1842      12    1818    1827    1845      12
    1872    1857    1875       9    1869    1857    1872       9    1869    1857
    1875       9    1863    1854    1866       9    1860    1854    1863       9
    1860    1854    1866       9    1848    1854    1860      12    1848    1854
    1863      12    1848    1854    1866      12    1848    1857    1869      12
    1848    1857    1872      12    1848    1857    1875      12    1902    1887
    1905       9    1899    1887    1902       9    1899    1887    1905       9
    1893    1884    1896       9    1890    1884    1893       9    1890    1884
    1896       9    1878    1884    1890      12    1878    1884    1893      12
    1878    1884    1896      12    1878    1887    1899      12    1878    1887
    1902      12    1878    1887    1905      12    1932    1917    1935       9
    1929    1917    1932       9    1929    1917    1935       9    1923    1914
    1926       9    1920    1914    1923       9    1920    1914    1926       9
    1908    1914    1920      12    1908    1914    1923      12    1908    1914
    1926      12    1908    1917    1929      12    1908    1917    1932      12
    1908    1917    1935      12    1962    1947    1965       9    1959    1947
    1962       9    1959    1947    1965       9    1953    1944    1956       9
    1950    1944    1953       9    1950    1944    1956       9    1938    1944
    1950      12    1938    1944    1953      12    1938    1944    1956      12
    1938    1947    1959      12    1938    1947    1962      12    1938    1947
    1965      12    1992    1977    1995       9    1989    1977    1992       9
    1989    1977    1995       9    1983    1974    1986       9    1980    1974
    1983       9    1980    1974    1986       9    1968    1974    1980      12
    1968    1974    1983      12    1968    1974    1986      12    1968    1977
    1989      12    1968    1977    1992      12    1968    1977    1995      12
    2022    2007    2025       9    2019    2007    2022       9    2019    2007
    2025       9    2013    2004    2016       9    2010    2004    2013       9
    2010    2004    2016       9    1998    2004    2010      12    1998    2004
    2013      12    1998    2004    2016      12    1998    2007    2019      12
    1998    2007    2022      12    1998    2007    2025      12    2052    2037
    2055       9    2049    2037    2052       9    2049    2037    2055       9
    2043    2034    2046       9    2040    2034    2043       9    2040    2034
    2046       9    2028    2034    2040      12    2028    2034    2043      12
    2028    2034    2046      12    2028    2037    2049      12    2028    2037
    2052      12    2028    2037    2055      12    2082    2067    2085       9
    2079    2067    2082       9    2079    2067    2085       9    2073    2064
    2076       9    2070    2064    2073       9    2070    2064    2076       9
    2058    2064    2070      12    2058    2064    2073      12    2058    2064
    2076      12    2058    2067    2079      12    2058    2067    2082      12
    2058    2067    2085      12    2112    2097    2115       9    2109    2097
    2112       9    2109    2097    2115       9    2103    2094    2106       9
    2100    2094    2103       9    2100    2094    2106       9    2088    2094
    2100      12    2088    2094    2103      12    2088    2094    2106      12
    2088    2097    2109      12    2088    2097    2112      12    2088    2097
    2115      12    2142    2127    2145       9    2139    2127    2142       9
    2139    2127    2145       9    2133    2124    2136       9    2130    2124
    2133       9    2130    2124    2136       9    2118    2124    2130      12
    2118    2124    2133      12    2118    2124    2136      12    2118    2127
    2139      12    2118    2127    2142      12    2118    2127    2145      12
    2172    2157    2175       9    2169    2157    2172       9    2169    2157
    2175       9    2163    2154    2166       9    2160    2154    2163       9
    2160    2154    2166       9    2148    2154    2160      12    2148    2154
    2163      12    2148    2154    2166      12    2148    2157    2169      12
    2148    2157    2172      12    2148    2157    2175      12    2202    2187
    2205       9    2199    2187    2202       9    2199    2187    2205       9
    2193    2184    2196       9    2190    2184    2193       9    2190    2184
    2196       9    2178    2184    2190      12    2178    2184    2193      12
    2178    2184    2196      12    2178    2187    2199      12    2178    2187
    2202      12    2178    2187    2205      12    2232    2217    2235       9
    2229    2217    2232       9    2229    2217    2235       9    2223    2214
    2226       9    2220    2214    2223       9    2220    2214    2226       9
    2208    2214    2220      12    2208    2214    2223      12    2208    2214
    2226      12    2208    2217    2229      12    2208    2217    2232      12
    2208    2217    2235      12    2262    2247    2265       9    2259    2247
    2262       9    2259    2247    2265       9    2253    2244    2256       9
    2250    2244    2253       9    2250    2244    2256       9    2238    2244
    2250      12    2238    2244    2253      12    2238    2244    2256      12
    2238    2247    2259      12    2238    2247    2262      12    2238    2247
    2265      12    2292    2277    2295       9    2289    2277    2292       9
    2289    2277    2295       9    2283    2274    2286       9    2280    2274
    2283       9    2280    2274    2286       9    2268    2274    2280      12
    2268    2274    2283      12    2268    2274    2286      12    2268    2277
    2289      12    2268    2277    2292      12    2268    2277    2295      12
    2322    2307    2325       9    2319    2307    2322       9    2319    2307
    2325       9    2313    2304    2316       9    2310    2304    2313       9
    2310    2304    2316       9    2298    2304    2310      12    2298    2304
    2313      12    2298    2304    2316      12    2298    2307    2319      12
    2298    2307    2322      12    2298    2307    2325      12    2352    2337
    2355       9    2349    2337    2352       9    2349    2337    2355       9
    2343    2334    2346       9    2340    2334    2343       9    2340    2334
    2346       9    2328    2334    2340      12    2328    2334    2343      12
    2328    2334    2346      12    2328    2337    2349      12    2328    2337
    2352      12    2328    2337    2355      12    2382    2367    2385       9
    2379    2367    2382       9    2379    2367    2385       9    2373    2364
    2376       9    2370    2364    2373       9    2370    2364    2376       9
    2358    2364    2370      12    2358    2364    2373      12    2358    2364
    2376      12    2358    2367    2379      12    2358    2367    2382      12
    2358    2367    2385      12    2412    2397    2415       9    2409    2397
    2412       9    2409    2397    2415       9    2403    2394    2406       9
    2400    2394    2403       9    2400    2394    2406       9    2388    2394
    2400      12    2388    2394    2403      12    2388    2394    2406      12
    2388    2397    2409      12    2388    2397    2412      12    2388    2397
    2415      12    2442    2427    2445       9    2439    2427    2442       9
    2439    2427    2445       9    2433    2424    2436       9    2430    2424
    2433       9    2430    2424    2436       9    2418    2424    2430      12
    2418    2424    2433      12    2418    2424    2436      12    2418    2427
    2439      12    2418    2427    2442      12    2418    2427    2445      12
    2472    2457    2475       9    2469    2457    2472       9    2469    2457
    2475       9    2463    2454    2466       9    2460    2454    2463       9
    2460    2454    2466       9    2448    2454    2460      12    2448    2454
    2463      12    2448    2454    2466      12    2448    2457    2469      12
    2448    2457    2472      12    2448    2457    2475      12    2502    2487
    2505       9    2499    2487    2502       9    2499    2487    2505       9
    2493    2484    2496       9    2490    2484    2493       9    2490    2484
    2496       9    2478    2484    2490      12    2478    2484    2493      12
    2478    2484    2496      12    2478    2487    2499      12    2478    2487
    2502      12    2478    2487    2505      12    2532    2517    2535       9
    2529    2517    2532       9    2529    2517    2535       9    2523    2514
    2526       9    2520    2514    2523       9    2520    2514    2526       9
    2508    2514    2520      12    2508    2514    2523      12    2508    2514
    2526      12    2508    2517    2529      12    2508    2517    2532      12
    2508    2517    2535      12    2562    2547    2565       9    2559    2547
    2562       9    2559    2547    2565       9    2553    2544    2556       9
    2550    2544    2553       9    2550    2544    2556       9    2538    2544
    2550      12    2538    2544    2553      12    2538    2544    2556      12
    2538    2547    2559      12    2538    2547    2562      12    2538    2547
    2565      12    2592    2577    2595       9    2589    2577    2592       9
    2589    2577    2595       9    2583    2574    2586       9    2580    2574
    2583       9    2580    2574    2586       9    2568    2574    2580      12
    2568    2574    2583      12    2568    2574    2586      12    2568    2577
    2589      12    2568    2577    2592      12    2568    2577    2595      12
    2622    2607    2625       9    2619    2607    2622       9    2619    2607
    2625       9    2613    2604    2616       9    2610    2604    2613       9
    2610    2604    2616       9    2598    2604    2610      12    2598    2604
    2613      12    2598    2604    2616      12    2598    2607    2619      12
    2598    2607    2622      12    2598    2607    2625      12    2652    2637
    2655       9    2649    2637    2652       9    2649    2637    2655       9
    2643    2634    2646       9    2640    2634    2643       9    2640    2634
    2646       9    2628    2634    2640      12    2628    2634    2643      12
    2628    2634    2646      12    2628    2637    2649      12    2628    2637
    2652      12    2628    2637    2655      12    2682    2667    2685       9
    2679    2667    2682       9    2679    2667    2685       9    2673    2664
    2676       9    2670    2664    2673       9    2670    2664    2676       9
    2658    2664    2670      12    2658    2664    2673      12    2658    2664
    2676      12    2658    2667    2679      12    2658    2667    2682      12
    2658    2667    2685      12    2712    2697    2715       9    2709    2697
    2712       9    2709    2697    2715       9    2703    2694    2706       9
    2700    2694    2703       9    2700    2694    2706       9    2688    2694
    2700      12    2688    2694    2703      12    2688    2694    2706      12
    2688    2697    2709      12    2688    2697    2712      12    2688    2697
    2715      12    2742    2727    2745       9    2739    2727    2742       9
    2739    2727    2745       9    2733    2724    2736       9    2730    2724
    2733       9    2730    2724    2736       9    2718    2724    2730      12
    2718    2724    2733      12    2718    2724    2736      12    2718    2727
    2739      12    2718    2727    2742      12    2718    2727    2745      12
    2772    2757    2775       9    2769    2757    2772       9    2769    2757
    2775       9    2763    2754    2766       9    2760    2754    2763       9
    2760    2754    2766       9    2748    2754    2760      12    2748    2754
    2763      12    2748    2754    2766      12    2748    2757    2769      12
    2748    2757    2772      12    2748    2757    2775      12    2802    2787
    2805       9    2799    2787    2802       9    2799    2787    2805       9
    2793    2784    2796       9    2790    2784    2793       9    2790    2784
    2796       9    2778    2784    2790      12    2778    2784    2793      12
    2778    2784    2796      12    2778    2787    2799      12    2778    2787
    2802      12    2778    2787    2805      12    2832    2817    2835       9
    2829    2817    2832       9    2829    2817    2835       9    2823    2814
    2826       9    2820    2814    2823       9    2820    2814    2826       9
    2808    2814    2820      12    2808    2814    2823      12    2808    2814
    2826      12    2808    2817    2829      12    2808    2817    2832      12
    2808    2817    2835      12    2862    2847    2865       9    2859    2847
    2862       9    2859    2847    2865       9    2853    2844    2856       9
    2850    2844    2853       9    2850    2844    2856       9    2838    2844
    2850      12    2838    2844    2853      12    2838    2844    2856      12
    2838    2847    2859      12    2838    2847    2862      12    2838    2847
    2865      12    2892    2877    2895       9    2889    2877    2892       9
    2889    2877    2895       9    2883    2874    2886       9    2880    2874
    2883       9    2880    2874    2886       9    2868    2874    2880      12
    2868    2874    2883      12    2868    2874    2886      12    2868    2877
    2889      12    2868    2877    2892      12    2868    2877    2895      12
    2922    2907    2925       9    2919    2907    2922       9    2919    2907
    2925       9    2913    2904    2916       9    2910    2904    2913       9
    2910    2904    2916       9    2898    2904    2910      12    2898    2904
    2913      12    2898    2904    2916      12    2898    2907    2919      12
    2898    2907    2922      12    2898    2907    2925      12    2952    2937
    2955       9    2949    2937    2952       9    2949    2937    2955       9
    2943    2934    2946       9    2940    2934    2943       9    2940    2934
    2946       9    2928    2934    2940      12    2928    2934    2943      12
    2928    2934    2946      12    2928    2937    2949      12    2928    2937
    2952      12    2928    2937    2955      12    2982    2967    2985       9
    2979    2967    2982       9    2979    2967    2985       9    2973    2964
    2976       9    2970    2964    2973       9    2970    2964    2976       9
    2958    2964    2970      12    2958    2964    2973      12    2958    2964
    2976      12    2958    2967    2979      12    2958    2967    2982      12
    2958    2967    2985      12    3012    2997    3015       9    3009    2997
    3012       9    3009    2997    3015       9    3003    2994    3006       9
    3000    2994    3003       9    3000    2994    3006       9    2988    2994
    3000      12    2988    2994    3003      12    2988    2994    3006      12
    2988    2997    3009      12    2988    2997    3012      12    2988    2997
    3015      12    3042    3027    3045       9    3039    3027    3042       9
    3039    3027    3045       9    3033    3024    3036       9    3030    3024
    3033       9    3030    3024    3036       9    3018    3024    3030      12
    3018    3024    3033      12    3018    3024    3036      12    3018    3027
    3039      12    3018    3027    3042      12    3018    3027    3045      12
    3072    3057    3075       9    3069    3057    3072       9    3069    3057
    3075       9    3063    3054    3066       9    3060    3054    3063       9
    3060    3054    3066       9    3048    3054    3060      12    3048    3054
    3063      12    3048    3054    3066      12    3048    3057    3069      12
    3048    3057    3072      12    3048    3057    3075      12    3102    3087
    3105       9    3099    3087    3102       9    3099    3087    3105       9
    3093    3084    3096       9    3090    3084    3093       9    3090    3084
    3096       9    3078    3084    3090      12    3078    3084    3093      12
    3078    3084    3096      12    3078    3087    3099      12    3078    3087
    3102      12    3078    3087    3105      12    3132    3117    3135       9
    3129    3117    3132       9    3129    3117    3135       9    3123    3114
    3126       9    3120    3114    3123       9    3120    3114    3126       9
    3108    3114    3120      12    3108    3114    3123      12    3108    3114
    3126      12    3108    3117    3129      12    3108    3117    3132      12
    3108    3117    3135      12    3162    3147    3165       9    3159    3147
    3162       9    3159    3147    3165       9    3153    3144    3156       9
    3150    3144    3153       9    3150    3144    3156       9    3138    3144
    3150      12    3138    3144    3153      12    3138    3144    3156      12
    3138    3147    3159      12    3138    3147    3162      12    3138    3147
    3165      12    3192    3177    3195       9    3189    3177    3192       9
    3189    3177    3195       9    3183    3174    3186       9    3180    3174
    3183       9    3180    3174    3186       9    3168    3174    3180      12
    3168    3174    3183      12    3168    3174    3186      12    3168    3177
    3189      12    3168    3177    3192      12    3168    3177    3195      12
    3222    3207    3225       9    3219    3207    3222       9    3219    3207
    3225       9    3213    3204    3216       9    3210    3204    3213       9
    3210    3204    3216       9    3198    3204    3210      12    3198    3204
    3213      12    3198    3204    3216      12    3198    3207    3219      12
    3198    3207    3222      12    3198    3207    3225      12    3252    3237
    3255       9    3249    3237    3252       9    3249    3237    3255       9
    3243    3234    3246       9    3240    3234    3243       9    3240    3234
    3246       9    3228    3234    3240      12    3228    3234    3243      12
    3228    3234    3246      12    3228    3237    3249      12    3228    3237
    3252      12    3228    3237    3255      12    3282    3267    3285       9
    3279    3267    3282       9    3279    3267    3285       9    3273    3264
    3276       9    3270    3264    3273       9    3270    3264    3276       9
    3258    3264    3270      12    3258    3264    3273      12    3258    3264
    3276      12    3258    3267    3279      12    3258    3267    3282      12
    3258    3267    3285      12    3312    3297    3315       9    3309    3297
    3312       9    3309    3297    3315       9    3303    3294    3306       9
    3300    3294    3303       9    3300    3294    3306       9    3288    3294
    3300      12    3288    3294    3303      12    3288    3294    3306      12
    3288    3297    3309      12    3288    3297    3312      12    3288    3297
    3315      12    3342    3327    3345       9    3339    3327    3342       9
    3339    3327    3345       9    3333    3324    3336       9    3330    3324
    3333       9    3330    3324    3336       9    3318    3324    3330      12
    3318    3324    3333      12    3318    3324    3336      12    3318    3327
    3339      12    3318    3327    3342      12    3318    3327    3345      12
    3372    3357    3375       9    3369    3357    3372       9    3369    3357
    3375       9    3363    3354    3366       9    3360    3354    3363       9
    3360    3354    3366       9    3348    3354    3360      12    3348    3354
    3363      12    3348    3354    3366      12    3348    3357    3369      12
    3348    3357    3372      12    3348    3357    3375      12    3402    3387
    3405       9    3399    3387    3402       9    3399    3387    3405       9
    3393    3384    3396       9    3390    3384    3393       9    3390    3384
    3396       9    3378    3384    3390      12    3378    3384    3393      12
    3378    3384    3396      12    3378    3387    3399      12    3378    3387
    3402      12    3378    3387    3405      12    3432    3417    3435       9
    3429    3417    3432       9    3429    3417    3435       9    3423    3414
    3426       9    3420    3414    3423       9    3420    3414    3426       9
    3408    3414    3420      12    3408    3414    3423      12    3408    3414
    3426      12    3408    3417    3429      12    3408    3417    3432      12
    3408    3417    3435      12    3462    3447    3465       9    3459    3447
    3462       9    3459    3447    3465       9    3453    3444    3456       9
    3450    3444    3453       9    3450    3444    3456       9    3438    3444
    3450      12    3438    3444    3453      12    3438    3444    3456      12
    3438    3447    3459      12    3438    3447    3462      12    3438    3447
    3465      12    3492    3477    3495       9    3489    3477    3492       9
    3489    3477    3495       9    3483    3474    3486       9    3480    3474
    3483       9    3480    3474    3486       9    3468    3474    3480      12
    3468    3474    3483      12    3468    3474    3486      12    3468    3477
    3489      12    3468    3477    3492      12    3468    3477    3495      12
    3522    3507    3525       9    3519    3507    3522       9    3519    3507
    3525       9    3513    3504    3516       9    3510    3504    3513       9
    3510    3504    3516       9    3498    3504    3510      12    3498    3504
    3513      12    3498    3504    3516      12    3498    3507    3519      12
    3498    3507    3522      12    3498    3507    3525      12    3552    3537
    3555       9    3549    3537    3552       9    3549    3537    3555       9
    3543    3534    3546       9    3540    3534    3543       9    3540    3534
    3546       9    3528    3534    3540      12    3528    3534    3543      12
    3528    3534    3546      12    3528    3537    3549      12    3528    3537
    3552      12    3528    3537    3555      12    3582    3567    3585       9
    3579    3567    3582       9    3579    3567    3585       9    3573    3564
    3576       9    3570    3564    3573       9    3570    3564    3576       9
    3558    3564    3570      12    3558    3564    3573      12    3558    3564
    3576      12    3558    3567    3579      12    3558    3567    3582      12
    3558    3567    3585      12    3612    3597    3615       9    3609    3597
    3612       9    3609    3597    3615       9    3603    3594    3606       9
    3600    3594    3603       9    3600    3594    3606       9    3588    3594
    3600      12    3588    3594    3603      12    3588    3594    3606      12
    3588    3597    3609      12    3588    3597    3612      12    3588    3597
    3615      12    3642    3627    3645       9    3639    3627    3642       9
    3639    3627    3645       9    3633    3624    3636       9    3630    3624
    3633       9    3630    3624    3636       9    3618    3624    3630      12
    3618    3624    3633      12    3618    3624    3636      12    3618    3627
    3639      12    3618    3627    3642      12    3618    3627    3645      12
    3672    3657    3675       9    3669    3657    3672       9    3669    3657
    3675       9    3663    3654    3666       9    3660    3654    3663       9
    3660    3654    3666       9    3648    3654    3660      12    3648    3654
    3663      12    3648    3654    3666      12    3648    3657    3669      12
    3648    3657    3672      12    3648    3657    3675      12    3702    3687
    3705       9    3699    3687    3702       9    3699    3687    3705       9
    3693    3684    3696       9    3690    3684    3693       9    3690    3684
    3696       9    3678    3684    3690      12    3678    3684    3693      12
    3678    3684    3696      12    3678    3687    3699      12    3678    3687
    3702      12    3678    3687    3705      12    3732    3717    3735       9
    3729    3717    3732       9    3729    3717    3735       9    3723    3714
    3726       9    3720    3714    3723       9    3720    3714    3726       9
    3708    3714    3720      12    3708    3714    3723      12    3708    3714
    3726      12    3708    3717    3729      12    3708    3717    3732      12
    3708    3717    3735      12    3762    3747    3765       9    3759    3747
    3762       9    3759    3747    3765       9    3753    3744    3756       9
    3750    3744    3753       9    3750    3744    3756       9    3738    3744
    3750      12    3738    3744    3753      12    3738    3744    3756      12
    3738    3747    3759      12    3738    3747    3762      12    3738    3747
    3765      12    3792    3777    3795       9    3789    3777    3792       9
    3789    3777    3795       9    3783    3774    3786       9    3780    3774
    3783       9    3780    3774    3786       9    3768    3774    3780      12
    3768    3774    3783      12    3768    3774    3786      12    3768    3777
    3789      12    3768    3777    3792      12    3768    3777    3795      12
    3822    3807    3825       9    3819    3807    3822       9    3819    3807
    3825       9    3813    3804    3816       9    3810    3804    3813       9
    3810    3804    3816       9    3798    3804    3810      12    3798    3804
    3813      12    3798    3804    3816      12    3798    3807    3819      12
    3798    3807    3822      12    3798    3807    3825      12    3852    3837
    3855       9    3849    3837    3852       9    3849    3837    3855       9
    3843    3834    3846       9    3840    3834    3843       9    3840    3834
    3846       9    3828    3834    3840      12    3828    3834    3843      12
    3828    3834    3846      12    3828    3837    3849      12    3828    3837
    3852      12    3828    3837    3855      12    3882    3867    3885       9
    3879    3867    3882       9    3879    3867    3885       9    3873    3864
    3876       9    3870    3864    3873       9    3870    3864    3876       9
    3858    3864    3870      12    3858    3864    3873      12    3858    3864
    3876      12    3858    3867    3879      12    3858    3867    3882      12
    3858    3867    3885      12    3912    3897    3915       9    3909    3897
    3912       9    3909    3897    3915       9    3903    3894    3906       9
    3900    3894    3903       9    3900    3894    3906       9    3888    3894
    3900      12    3888    3894    3903      12    3888    3894    3906      12
    3888    3897    3909      12    3888    3897    3912      12    3888    3897
    3915      12    3942    3927    3945       9    3939    3927    3942       9
    3939    3927    3945       9    3933    3924    3936       9    3930    3924
    3933       9    3930    3924    3936       9    3918    3924    3930      12
    3918    3924    3933      12    3918    3924    3936      12    3918    3927
    3939      12    3918    3927    3942      12    3918    3927    3945      12
    3972    3957    3975       9    3969    3957    3972       9    3969    3957
    3975       9    3963    3954    3966       9    3960    3954    3963       9
    3960    3954    3966       9    3948    3954    3960      12    3948    3954
    3963      12    3948    3954    3966      12    3948    3957    3969      12
    3948    3957    3972      12    3948    3957    3975      12    4002    3987
    4005       9    3999    3987    4002       9    3999    3987    4005       9
    3993    3984    3996       9    3990    3984    3993       9    3990    3984
    3996       9    3978    3984    3990      12    3978    3984    3993      12
    3978    3984    3996      12    3978    3987    3999      12    3978    3987
    4002      12    3978    3987    4005      12    4032    4017    4035       9
    4029    4017    4032       9    4029    4017    4035       9    4023    4014
    4026       9    4020    4014    4023       9    4020    4014    4026       9
    4008    4014    4020      12    4008    4014    4023      12    4008    4014
    4026      12    4008    4017    4029      12    4008    4017    4032      12
    4008    4017    4035      12    4062    4047    4065       9    4059    4047
    4062       9    4059    4047    4065       9    4053    4044    4056       9
    4050    4044    4053       9    4050    4044    4056       9    4038    4044
    4050      12    4038    4044    4053      12    4038    4044    4056      12
    4038    4047    4059      12    4038    4047    4062      12    4038    4047
    4065      12    4092    4077    4095       9    4089    4077    4092       9
    4089    4077    4095       9    4083    4074    4086       9    4080    4074
    4083       9    4080    4074    4086       9    4068    4074    4080      12
    4068    4074    4083      12    4068    4074    4086      12    4068    4077
    4089      12    4068    4077    4092      12    4068    4077    4095      12
    4122    4107    4125       9    4119    4107    4122       9    4119    4107
    4125       9    4113    4104    4116       9    4110    4104    4113       9
    4110    4104    4116       9    4098    4104    4110      12    4098    4104
    4113      12    4098    4104    4116      12    4098    4107    4119      12
    4098    4107    4122      12    4098    4107    4125      12    4152    4137
    4155       9    4149    4137    4152       9    4149    4137    4155       9
    4143    4134    4146       9    4140    4134    4143       9    4140    4134
    4146       9    4128    4134    4140      12    4128    4134    4143      12
    4128    4134    4146      12    4128    4137    4149      12    4128    4137
    4152      12    4128    4137    4155      12    4182    4167    4185       9
    4179    4167    4182       9    4179    4167    4185       9    4173    4164
    4176       9    4170    4164    4173       9    4170    4164    4176       9
    4158    4164    4170      12    4158    4164    4173      12    4158    4164
    4176      12    4158    4167    4179      12    4158    4167    4182      12
    4158    4167    4185      12    4212    4197    4215       9    4209    4197
    4212       9    4209    4197    4215       9    4203    4194    4206       9
    4200    4194    4203       9    4200    4194    4206       9    4188    4194
    4200      12    4188    4194    4203      12    4188    4194    4206      12
    4188    4197    4209      12    4188    4197    4212      12    4188    4197
    4215      12    4242    4227    4245       9    4239    4227    4242       9
    4239    4227    4245       9    4233    4224    4236       9    4230    4224
    4233       9    4230    4224    4236       9    4218    4224    4230      12
    4218    4224    4233      12    4218    4224    4236      12    4218    4227
    4239      12    4218    4227    4242      12    4218    4227    4245      12
    4272    4257    4275       9    4269    4257    4272       9    4269    4257
    4275       9    4263    4254    4266       9    4260    4254    4263       9
    4260    4254    4266       9    4248    4254    4260      12    4248    4254
    4263      12    4248    4254    4266      12    4248    4257    4269      12
    4248    4257    4272      12    4248    4257    4275      12    4302    4287
    4305       9    4299    4287    4302       9    4299    4287    4305       9
    4293    4284    4296       9    4290    4284    4293       9    4290    4284
    4296       9    4278    4284    4290      12    4278    4284    4293      12
    4278    4284    4296      12    4278    4287    4299      12    4278    4287
    4302      12    4278    4287    4305      12    4332    4317    4335       9
    4329    4317    4332       9    4329    4317    4335       9    4323    4314
    4326       9    4320    4314    4323       9    4320    4314    4326       9
    4308    4314    4320      12    4308    4314    4323      12    4308    4314
    4326      12    4308    4317    4329      12    4308    4317    4332      12
    4308    4317    4335      12    4362    4347    4365       9    4359    4347
    4362       9    4359    4347    4365       9    4353    4344    4356       9
    4350    4344    4353       9    4350    4344    4356       9    4338    4344
    4350      12    4338    4344    4353      12    4338    4344    4356      12
    4338    4347    4359      12    4338    4347    4362      12    4338    4347
    4365      12    4392    4377    4395       9    4389    4377    4392       9
    4389    4377    4395       9    4383    4374    4386       9    4380    4374
    4383       9    4380    4374    4386       9    4368    4374    4380      12
    4368    4374    4383      12    4368    4374    4386      12    4368    4377
    4389      12    4368    4377    4392      12    4368    4377    4395      12
    4422    4407    4425       9    4419    4407    4422       9    4419    4407
    4425       9    4413    4404    4416       9    4410    4404    4413       9
    4410    4404    4416       9    4398    4404    4410      12    4398    4404
    4413      12    4398    4404    4416      12    4398    4407    4419      12
    4398    4407    4422      12    4398    4407    4425      12    4452    4437
    4455       9    4449    4437    4452       9    4449    4437    4455       9
    4443    4434    4446       9    4440    4434    4443       9    4440    4434
    4446       9    4428    4434    4440      12    4428    4434    4443      12
    4428    4434    4446      12    4428    4437    4449      12    4428    4437
    4452      12    4428    4437    4455      12    4482    4467    4485       9
    4479    4467    4482       9    4479    4467    4485       9    4473    4464
    4476       9    4470    4464    4473       9    4470    4464    4476       9
    4458    4464    4470      12    4458    4464    4473      12    4458    4464
    4476      12    4458    4467    4479      12    4458    4467    4482      12
    4458    4467    4485      12    4512    4497    4515       9    4509    4497
    4512       9    4509    4497    4515       9    4503    4494    4506       9
    4500    4494    4503       9    4500    4494    4506       9    4488    4494
    4500      12    4488    4494    4503      12    4488    4494    4506      12
    4488    4497    4509      12    4488    4497    4512      12    4488    4497
    4515      12    4542    4527    4545       9    4539    4527    4542       9
    4539    4527    4545       9    4533    4524    4536       9    4530    4524
    4533       9    4530    4524    4536       9    4518    4524    4530      12
    4518    4524    4533      12    4518    4524    4536      12    4518    4527
    4539      12    4518    4527    4542      12    4518    4527    4545      12
    4572    4557    4575       9    4569    4557    4572       9    4569    4557
    4575       9    4563    4554    4566       9    4560    4554    4563       9
    4560    4554    4566       9    4548    4554    4560      12    4548    4554
    4563      12    4548    4554    4566      12    4548    4557    4569      12
    4548    4557    4572      12    4548    4557    4575      12    4602    4587
    4605       9    4599    4587    4602       9    4599    4587    4605       9
    4593    4584    4596       9    4590    4584    4593       9    4590    4584
    4596       9    4578    4584    4590      12    4578    4584    4593      12
    4578    4584    4596      12    4578    4587    4599      12    4578    4587
    4602      12    4578    4587    4605      12    4632    4617    4635       9
    4629    4617    4632       9    4629    4617    4635       9    4623    4614
    4626       9    4620    4614    4623       9    4620    4614    4626       9
    4608    4614    4620      12    4608    4614    4623      12    4608    4614
    4626      12    4608    4617    4629      12    4608    4617    4632      12
    4608    4617    4635      12    4662    4647    4665       9    4659    4647
    4662       9    4659    4647    4665       9    4653    4644    4656       9
    4650    4644    4653       9    4650    4644    4656       9    4638    4644
    4650      12    4638    4644    4653      12    4638    4644    4656      12
    4638    4647    4659      12    4638    4647    4662      12    4638    4647
    4665      12    4692    4677    4695       9    4689    4677    4692       9
    4689    4677    4695       9    4683    4674    4686       9    4680    4674
    4683       9    4680    4674    4686       9    4668    4674    4680      12
    4668    4674    4683      12    4668    4674    4686      12    4668    4677
    4689      12    4668    4677    4692      12    4668    4677    4695      12
    4722    4707    4725       9    4719    4707    4722       9    4719    4707
    4725       9    4713    4704    4716       9    4710    4704    4713       9
    4710    4704    4716       9    4698    4704    4710      12    4698    4704
    4713      12    4698    4704    4716      12    4698    4707    4719      12
    4698    4707    4722      12    4698    4707    4725      12    4752    4737
    4755       9    4749    4737    4752       9    4749    4737    4755       9
    4743    4734    4746       9    4740    4734    4743       9    4740    4734
    4746       9    4728    4734    4740      12    4728    4734    4743      12
    4728    4734    4746      12    4728    4737    4749      12    4728    4737
    4752      12    4728    4737    4755      12    4782    4767    4785       9
    4779    4767    4782       9    4779    4767    4785       9    4773    4764
    4776       9    4770    4764    4773       9    4770    4764    4776       9
    4758    4764    4770      12    4758    4764    4773      12    4758    4764
    4776      12    4758    4767    4779      12    4758    4767    4782      12
    4758    4767    4785      12    4812    4797    4815       9    4809    4797
    4812       9    4809    4797    4815       9    4803    4794    4806       9
    4800    4794    4803       9    4800    4794    4806       9    4788    4794
    4800      12    4788    4794    4803      12    4788    4794    4806      12
    4788    4797    4809      12    4788    4797    4812      12    4788    4797
    4815      12    4842    4827    4845       9    4839    4827    4842       9
    4839    4827    4845       9    4833    4824    4836       9    4830    4824
    4833       9    4830    4824    4836       9    4818    4824    4830      12
    4818    4824    4833      12    4818    4824    4836      12    4818    4827
    4839      12    4818    4827    4842      12    4818    4827    4845      12
    4872    4857    4875       9    4869    4857    4872       9    4869    4857
    4875       9    4863    4854    4866       9    4860    4854    4863       9
    4860    4854    4866       9    4848    4854    4860      12    4848    4854
    4863      12    4848    4854    4866      12    4848    4857    4869      12
    4848    4857    4872      12    4848    4857    4875      12    4902    4887
    4905       9    4899    4887    4902       9    4899    4887    4905       9
    4893    4884    4896       9    4890    4884    4893       9    4890    4884
    4896       9    4878    4884    4890      12    4878    4884    4893      12
    4878    4884    4896      12    4878    4887    4899      12    4878    4887
    4902      12    4878    4887    4905      12    4932    4917    4935       9
    4929    4917    4932       9    4929    4917    4935       9    4923    4914
    4926       9    4920    4914    4923       9    4920    4914    4926       9
    4908    4914    4920      12    4908    4914    4923      12    4908    4914
    4926      12    4908    4917    4929      12    4908    4917    4932      12
    4908    4917    4935      12    4962    4947    4965       9    4959    4947
    4962       9    4959    4947    4965       9    4953    4944    4956       9
    4950    4944    4953       9    4950    4944    4956       9    4938    4944
    4950      12    4938    4944    4953      12    4938    4944    4956      12
    4938    4947    4959      12    4938    4947    4962      12    4938    4947
    4965      12    4992    4977    4995       9    4989    4977    4992       9
    4989    4977    4995       9    4983    4974    4986       9    4980    4974
    4983       9    4980    4974    4986       9    4968    4974    4980      12
    4968    4974    4983      12    4968    4974    4986      12    4968    4977
    4989      12    4968    4977    4992      12    4968    4977    4995      12
    5022    5007    5025       9    5019    5007    5022       9    5019    5007
    5025       9    5013    5004    5016       9    5010    5004    5013       9
    5010    5004    5016       9    4998    5004    5010      12    4998    5004
    5013      12    4998    5004    5016      12    4998    5007    5019      12
    4998    5007    5022      12    4998    5007    5025      12    5052    5037
    5055       9    5049    5037    5052       9    5049    5037    5055       9
    5043    5034    5046       9    5040    5034    5043       9    5040    5034
    5046       9    5028    5034    5040      12    5028    5034    5043      12
    5028    5034    5046      12    5028    5037    5049      12    5028    5037
    5052      12    5028    5037    5055      12    5082    5067    5085       9
    5079    5067    5082       9    5079    5067    5085       9    5073    5064
    5076       9    5070    5064    5073       9    5070    5064    5076       9
    5058    5064    5070      12    5058    5064    5073      12    5058    5064
    5076      12    5058    5067    5079      12    5058    5067    5082      12
    5058    5067    5085      12    5112    5097    5115       9    5109    5097
    5112       9    5109    5097    5115       9    5103    5094    5106       9
    5100    5094    5103       9    5100    5094    5106       9    5088    5094
    5100      12    5088    5094    5103      12    5088    5094    5106      12
    5088    5097    5109      12    5088    5097    5112      12    5088    5097
    5115      12    5142    5127    5145       9    5139    5127    5142       9
    5139    5127    5145       9    5133    5124    5136       9    5130    5124
    5133       9    5130    5124    5136       9    5118    5124    5130      12
    5118    5124    5133      12    5118    5124    5136      12    5118    5127
    5139      12    5118    5127    5142      12    5118    5127    5145      12
    5172    5157    5175       9    5169    5157    5172       9    5169    5157
    5175       9    5163    5154    5166       9    5160    5154    5163       9
    5160    5154    5166       9    5148    5154    5160      12    5148    5154
    5163      12    5148    5154    5166      12    5148    5157    5169      12
    5148    5157    5172      12    5148    5157    5175      12    5202    5187
    5205       9    5199    5187    5202       9    5199    5187    5205       9
    5193    5184    5196       9    5190    5184    5193       9    5190    5184
    5196       9    5178    5184    5190      12    5178    5184    5193      12
    5178    5184    5196      12    5178    5187    5199      12    5178    5187
    5202      12    5178    5187    5205      12    5232    5217    5235       9
    5229    5217    5232       9    5229    5217    5235       9    5223    5214
    5226       9    5220    5214    5223       9    5220    5214    5226       9
    5208    5214    5220      12    5208    5214    5223      12    5208    5214
    5226      12    5208    5217    5229      12    5208    5217    5232      12
    5208    5217    5235      12    5262    5247    5265       9    5259    5247
    5262       9    5259    5247    5265       9    5253    5244    5256       9
    5250    5244    5253       9    5250    5244    5256       9    5238    5244
    5250      12    5238    5244    5253      12    5238    5244    5256      12
    5238    5247    5259      12    5238    5247    5262      12    5238    5247
    5265      12    5292    5277    5295       9    5289    5277    5292       9
    5289    5277    5295       9    5283    5274    5286       9    5280    5274
    5283       9    5280    5274    5286       9    5268    5274    5280      12
    5268    5274    5283      12    5268    5274    5286      12    5268    5277
    5289      12    5268    5277    5292      12    5268    5277    5295      12
    5322    5307    5325       9    5319    5307    5322       9    5319    5307
    5325       9    5313    5304    5316       9    5310    5304    5313       9
    5310    5304    5316       9    5298    5304    5310      12    5298    5304
    5313      12    5298    5304    5316      12    5298    5307    5319      12
    5298    5307    5322      12    5298    5307    5325      12    5352    5337
    5355       9    5349    5337    5352       9    5349    5337    5355       9
    5343    5334    5346       9    5340    5334    5343       9    5340    5334
    5346       9    5328    5334    5340      12    5328    5334    5343      12
    5328    5334    5346      12    5328    5337    5349      12    5328    5337
    5352      12    5328    5337    5355      12    5382    5367    5385       9
    5379    5367    5382       9    5379    5367    5385       9    5373    5364
    5376       9    5370    5364    5373       9    5370    5364    5376       9
    5358    5364    5370      12    5358    5364    5373      12    5358    5364
    5376      12    5358    5367    5379      12    5358    5367    5382      12
    5358    5367    5385      12    5412    5397    5415       9    5409    5397
    5412       9    5409    5397    5415       9    5403    5394    5406       9
    5400    5394    5403       9    5400    5394    5406       9    5388    5394
    5400      12    5388    5394    5403      12    5388    5394    5406      12
    5388    5397    5409      12    5388    5397    5412      12    5388    5397
    5415      12    5442    5427    5445       9    5439    5427    5442       9
    5439    5427    5445       9    5433    5424    5436       9    5430    5424
    5433       9    5430    5424    5436       9    5418    5424    5430      12
    5418    5424    5433      12    5418    5424    5436      12    5418    5427
    5439      12    5418    5427    5442      12    5418    5427    5445      12
    5472    5457    5475       9    5469    5457    5472       9    5469    5457
    5475       9    5463    5454    5466       9    5460    5454    5463       9
    5460    5454    5466       9    5448    5454    5460      12    5448    5454
    5463      12    5448    5454    5466      12    5448    5457    5469      12
    5448    5457    5472      12    5448    5457    5475      12    5502    5487
    5505       9    5499    5487    5502       9    5499    5487    5505       9
    5493    5484    5496       9    5490    5484    5493       9    5490    5484
    5496       9    5478    5484    5490      12    5478    5484    5493      12
    5478    5484    5496      12    5478    5487    5499      12    5478    5487
    5502      12    5478    5487    5505      12    5532    5517    5535       9
    5529    5517    5532       9    5529    5517    5535       9    5523    5514
    5526       9    5520    5514    5523       9    5520    5514    5526       9
    5508    5514    5520      12    5508    5514    5523      12    5508    5514
    5526      12    5508    5517    5529      12    5508    5517    5532      12
    5508    5517    5535      12    5562    5547    5565       9    5559    5547
    5562       9    5559    5547    5565       9    5553    5544    5556       9
    5550    5544    5553       9    5550    5544    5556       9    5538    5544
    5550      12    5538    5544    5553      12    5538    5544    5556      12
    5538    5547    5559      12    5538    5547    5562      12    5538    5547
    5565      12    5592    5577    5595       9    5589    5577    5592       9
    5589    5577    5595       9    5583    5574    5586       9    5580    5574
    5583       9    5580    5574    5586       9    5568    5574    5580      12
    5568    5574    5583      12    5568    5574    5586      12    5568    5577
    5589      12    5568    5577    5592      12    5568    5577    5595      12
    5622    5607    5625       9    5619    5607    5622       9    5619    5607
    5625       9    5613    5604    5616       9    5610    5604    5613       9
    5610    5604    5616       9    5598    5604    5610      12    5598    5604
    5613      12    5598    5604    5616      12    5598    5607    5619      12
    5598    5607    5622      12    5598    5607    5625      12    5652    5637
    5655       9    5649    5637    5652       9    5649    5637    5655       9
    5643    5634    5646       9    5640    5634    5643       9    5640    5634
    5646       9    5628    5634    5640      12    5628    5634    5643      12
    5628    5634    5646      12    5628    5637    5649      12    5628    5637
    5652      12    5628    5637    5655      12    5682    5667    5685       9
    5679    5667    5682       9    5679    5667    5685       9    5673    5664
    5676       9    5670    5664    5673       9    5670    5664    5676       9
    5658    5664    5670      12    5658    5664    5673      12    5658    5664
    5676      12    5658    5667    5679      12    5658    5667    5682      12
    5658    5667    5685      12    5712    5697    5715       9    5709    5697
    5712       9    5709    5697    5715       9    5703    5694    5706       9
    5700    5694    5703       9    5700    5694    5706       9    5688    5694
    5700      12    5688    5694    5703      12    5688    5694    5706      12
    5688    5697    5709      12    5688    5697    5712      12    5688    5697
    5715      12    5742    5727    5745       9    5739    5727    5742       9
    5739    5727    5745       9    5733    5724    5736       9    5730    5724
    5733       9    5730    5724    5736       9    5718    5724    5730      12
    5718    5724    5733      12    5718    5724    5736      12    5718    5727
    5739      12    5718    5727    5742      12    5718    5727    5745      12
    5772    5757    5775       9    5769    5757    5772       9    5769    5757
    5775       9    5763    5754    5766       9    5760    5754    5763       9
    5760    5754    5766       9    5748    5754    5760      12    5748    5754
    5763      12    5748    5754    5766      12    5748    5757    5769      12
    5748    5757    5772      12    5748    5757    5775      12    5802    5787
    5805       9    5799    5787    5802       9    5799    5787    5805       9
    5793    5784    5796       9    5790    5784    5793       9    5790    5784
    5796       9    5778    5784    5790      12    5778    5784    5793      12
    5778    5784    5796      12    5778    5787    5799      12    5778    5787
    5802      12    5778    5787    5805      12    5832    5817    5835       9
    5829    5817    5832       9    5829    5817    5835       9    5823    5814
    5826       9    5820    5814    5823       9    5820    5814    5826       9
    5808    5814    5820      12    5808    5814    5823      12    5808    5814
    5826      12    5808    5817    5829      12    5808    5817    5832      12
    5808    5817    5835      12    5862    5847    5865       9    5859    5847
    5862       9    5859    5847    5865       9    5853    5844    5856       9
    5850    5844    5853       9    5850    5844    5856       9    5838    5844
    5850      12    5838    5844    5853      12    5838    5844    5856      12
    5838    5847    5859      12    5838    5847    5862      12    5838    5847
    5865      12    5892    5877    5895       9    5889    5877    5892       9
    5889    5877    5895       9    5883    5874    5886       9    5880    5874
    5883       9    5880    5874    5886       9    5868    5874    5880      12
    5868    5874    5883      12    5868    5874    5886      12    5868    5877
    5889      12    5868    5877    5892      12    5868    5877    5895      12
    5922    5907    5925       9    5919    5907    5922       9    5919    5907
    5925       9    5913    5904    5916       9    5910    5904    5913       9
    5910    5904    5916       9    5898    5904    5910      12    5898    5904
    5913      12    5898    5904    5916      12    5898    5907    5919      12
    5898    5907    5922      12    5898    5907    5925      12    5952    5937
    5955       9    5949    5937    5952       9    5949    5937    5955       9
    5943    5934    5946       9    5940    5934    5943       9    5940    5934
    5946       9    5928    5934    5940      12    5928    5934    5943      12
    5928    5934    5946      12    5928    5937    5949      12    5928    5937
    5952      12    5928    5937    5955      12    5982    5967    5985       9
    5979    5967    5982       9    5979    5967    5985       9    5973    5964
    5976       9    5970    5964    5973       9    5970    5964    5976       9
    5958    5964    5970      12    5958    5964    5973      12    5958    5964
    5976      12    5958    5967    5979      12    5958    5967    5982      12
    5958    5967    5985      12    6012    5997    6015       9    6009    5997
    6012       9    6009    5997    6015       9    6003    5994    6006       9
    6000    5994    6003       9    6000    5994    6006       9    5988    5994
    6000      12    5988    5994    6003      12    5988    5994    6006      12
    5988    5997    6009      12    5988    5997    6012      12    5988    5997
    6015      12    6042    6027    6045       9    6039    6027    6042       9
    6039    6027    6045       9    6033    6024    6036       9    6030    6024
    6033       9    6030    6024    6036       9    6018    6024    6030      12
    6018    6024    6033      12    6018    6024    6036      12    6018    6027
    6039      12    6018    6027    6042      12    6018    6027    6045      12
    6072    6057    6075       9    6069    6057    6072       9    6069    6057
    6075       9    6063    6054    6066       9    6060    6054    6063       9
    6060    6054    6066       9    6048    6054    6060      12    6048    6054
    6063      12    6048    6054    6066      12    6048    6057    6069      12
    6048    6057    6072      12    6048    6057    6075      12    6102    6087
    6105       9    6099    6087    6102       9    6099    6087    6105       9
    6093    6084    6096       9    6090    6084    6093       9    6090    6084
    6096       9    6078    6084    6090      12    6078    6084    6093      12
    6078    6084    6096      12    6078    6087    6099      12    6078    6087
    6102      12    6078    6087    6105      12    6132    6117    6135       9
    6129    6117    6132       9    6129    6117    6135       9    6123    6114
    6126       9    6120    6114    6123       9    6120    6114    6126       9
    6108    6114    6120      12    6108    6114    6123      12    6108    6114
    6126      12    6108    6117    6129      12    6108    6117    6132      12
    6108    6117    6135      12    6162    6147    6165       9    6159    6147
    6162       9    6159    6147    6165       9    6153    6144    6156       9
    6150    6144    6153       9    6150    6144    6156       9    6138    6144
    6150      12    6138    6144    6153      12    6138    6144    6156      12
    6138    6147    6159      12    6138    6147    6162      12    6138    6147
    6165      12    6192    6177    6195       9    6189    6177    6192       9
    6189    6177    6195       9    6183    6174    6186       9    6180    6174
    6183       9    6180    6174    6186       9    6168    6174    6180      12
    6168    6174    6183      12    6168    6174    6186      12    6168    6177
    6189      12    6168    6177    6192      12    6168    6177    6195      12
    6222    6207    6225       9    6219    6207    6222       9    6219    6207
    6225       9    6213    6204    6216       9    6210    6204    6213       9
    6210    6204    6216       9    6198    6204    6210      12    6198    6204
    6213      12    6198    6204    6216      12    6198    6207    6219      12
    6198    6207    6222      12    6198    6207    6225      12    6252    6237
    6255       9    6249    6237    6252       9    6249    6237    6255       9
    6243    6234    6246       9    6240    6234    6243       9    6240    6234
    6246       9    6228    6234    6240      12    6228    6234    6243      12
    6228    6234    6246      12    6228    6237    6249      12    6228    6237
    6252      12    6228    6237    6255      12    6282    6267    6285       9
    6279    6267    6282       9    6279    6267    6285       9    6273    6264
    6276       9    6270    6264    6273       9    6270    6264    6276       9
    6258    6264    6270      12    6258    6264    6273      12    6258    6264
    6276      12    6258    6267    6279      12    6258    6267    6282      12
    6258    6267    6285      12    6312    6297    6315       9    6309    6297
    6312       9    6309    6297    6315       9    6303    6294    6306       9
    6300    6294    6303       9    6300    6294    6306       9    6288    6294
    6300      12    6288    6294    6303      12    6288    6294    6306      12
    6288    6297    6309      12    6288    6297    6312      12    6288    6297
    6315      12    6342    6327    6345       9    6339    6327    6342       9
    6339    6327    6345       9    6333    6324    6336       9    6330    6324
    6333       9    6330    6324    6336       9    6318    6324    6330      12
    6318    6324    6333      12    6318    6324    6336      12    6318    6327
    6339      12    6318    6327    6342      12    6318    6327    6345      12
    6372    6357    6375       9    6369    6357    6372       9    6369    6357
    6375       9    6363    6354    6366       9    6360    6354    6363       9
    6360    6354    6366       9    6348    6354    6360      12    6348    6354
    6363      12    6348    6354    6366      12    6348    6357    6369      12
    6348    6357    6372      12    6348    6357    6375      12    6402    6387
    6405       9    6399    6387    6402       9    6399    6387    6405       9
    6393    6384    6396       9    6390    6384    6393       9    6390    6384
    6396       9    6378    6384    6390      12    6378    6384    6393      12
    6378    6384    6396      12    6378    6387    6399      12    6378    6387
    6402      12    6378    6387    6405      12    6432    6417    6435       9
    6429    6417    6432       9    6429    6417    6435       9    6423    6414
    6426       9    6420    6414    6423       9    6420    6414    6426       9
    6408    6414    6420      12    6408    6414    6423      12    6408    6414
    6426      12    6408    6417    6429      12    6408    6417    6432      12
    6408    6417    6435      12    6462    6447    6465       9    6459    6447
    6462       9    6459    6447    6465       9    6453    6444    6456       9
    6450    6444    6453       9    6450    6444    6456       9    6438    6444
    6450      12    6438    6444    6453      12    6438    6444    6456      12
    6438    6447    6459      12    6438    6447    6462      12    6438    6447
    6465      12    6492    6477    6495       9    6489    6477    6492       9
    6489    6477    6495       9    6483    6474    6486       9    6480    6474
    6483       9    6480    6474    6486       9    6468    6474    6480      12
    6468    6474    6483      12    6468    6474    6486      12    6468    6477
    6489      12    6468    6477    6492      12    6468    6477    6495      12
    6522    6507    6525       9    6519    6507    6522       9    6519    6507
    6525       9    6513    6504    6516       9    6510    6504    6513       9
    6510    6504    6516       9    6498    6504    6510      12    6498    6504
    6513      12    6498    6504    6516      12    6498    6507    6519      12
    6498    6507    6522      12    6498    6507    6525      12    6552    6537
    6555       9    6549    6537    6552       9    6549    6537    6555       9
    6543    6534    6546       9    6540    6534    6543       9    6540    6534
    6546       9    6528    6534    6540      12    6528    6534    6543      12
    6528    6534    6546      12    6528    6537    6549      12    6528    6537
    6552      12    6528    6537    6555      12    6582    6567    6585       9
    6579    6567    6582       9    6579    6567    6585       9    6573    6564
    6576       9    6570    6564    6573       9    6570    6564    6576       9
    6558    6564    6570      12    6558    6564    6573      12    6558    6564
    6576      12    6558    6567    6579      12    6558    6567    6582      12
    6558    6567    6585      12    6612    6597    6615       9    6609    6597
    6612       9    6609    6597    6615       9    6603    6594    6606       9
    6600    6594    6603       9    6600    6594    6606       9    6588    6594
    6600      12    6588    6594    6603      12    6588    6594    6606      12
    6588    6597    6609      12    6588    6597    6612      12    6588    6597
    6615      12    6642    6627    6645       9    6639    6627    6642       9
    6639    6627    6645       9    6633    6624    6636       9    6630    6624
    6633       9    6630    6624    6636       9    6618    6624    6630      12
    6618    6624    6633      12    6618    6624    6636      12    6618    6627
    6639      12    6618    6627    6642      12    6618    6627    6645      12
    6672    6657    6675       9    6669    6657    6672       9    6669    6657
    6675       9    6663    6654    6666       9    6660    6654    6663       9
    6660    6654    6666       9    6648    6654    6660      12    6648    6654
    6663      12    6648    6654    6666      12    6648    6657    6669      12
    6648    6657    6672      12    6648    6657    6675      12    6702    6687
    6705       9    6699    6687    6702       9    6699    6687    6705       9
    6693    6684    6696       9    6690    6684    6693       9    6690    6684
    6696       9    6678    6684    6690      12    6678    6684    6693      12
    6678    6684    6696      12    6678    6687    6699      12    6678    6687
    6702      12    6678    6687    6705      12    6732    6717    6735       9
    6729    6717    6732       9    6729    6717    6735       9    6723    6714
    6726       9    6720    6714    6723       9    6720    6714    6726       9
    6708    6714    6720      12    6708    6714    6723      12    6708    6714
    6726      12    6708    6717    6729      12    6708    6717    6732      12
    6708    6717    6735      12    6762    6747    6765       9    6759    6747
    6762       9    6759    6747    6765       9    6753    6744    6756       9
    6750    6744    6753       9    6750    6744    6756       9    6738    6744
    6750      12    6738    6744    6753      12    6738    6744    6756      12
    6738    6747    6759      12    6738    6747    6762      12    6738    6747
    6765      12    6792    6777    6795       9    6789    6777    6792       9
    6789    6777    6795       9    6783    6774    6786       9    6780    6774
    6783       9    6780    6774    6786       9    6768    6774    6780      12
    6768    6774    6783      12    6768    6774    6786      12    6768    6777
    6789      12    6768    6777    6792      12    6768    6777    6795      12
    6822    6807    6825       9    6819    6807    6822       9    6819    6807
    6825       9    6813    6804    6816       9    6810    6804    6813       9
    6810    6804    6816       9    6798    6804    6810      12    6798    6804
    6813      12    6798    6804    6816      12    6798    6807    6819      12
    6798    6807    6822      12    6798    6807    6825      12    6852    6837
    6855       9    6849    6837    6852       9    6849    6837    6855       9
    6843    6834    6846       9    6840    6834    6843       9    6840    6834
    6846       9    6828    6834    6840      12    6828    6834    6843      12
    6828    6834    6846      12    6828    6837    6849      12    6828    6837
    6852      12    6828    6837    6855      12    6882    6867    6885       9
    6879    6867    6882       9    6879    6867    6885       9    6873    6864
    6876       9    6870    6864    6873       9    6870    6864    6876       9
    6858    6864    6870      12    6858    6864    6873      12    6858    6864
    6876      12    6858    6867    6879      12    6858    6867    6882      12
    6858    6867    6885      12    6912    6897    6915       9    6909    6897
    6912       9    6909    6897    6915       9    6903    6894    6906       9
    6900    6894    6903       9    6900    6894    6906       9    6888    6894
    6900      12    6888    6894    6903      12    6888    6894    6906      12
    6888    6897    6909      12    6888    6897    6912      12    6888    6897
    6915      12    6942    6927    6945       9    6939    6927    6942       9
    6939    6927    6945       9    6933    6924    6936       9    6930    6924
    6933       9    6930    6924    6936       9    6918    6924    6930      12
    6918    6924    6933      12    6918    6924    6936      12    6918    6927
    6939      12    6918    6927    6942      12    6918    6927    6945      12
    6972    6957    6975       9    6969    6957    6972       9    6969    6957
    6975       9    6963    6954    6966       9    6960    6954    6963       9
    6960    6954    6966       9    6948    6954    6960      12    6948    6954
    6963      12    6948    6954    6966      12    6948    6957    6969      12
    6948    6957    6972      12    6948    6957    6975      12    7002    6987
    7005       9    6999    6987    7002       9    6999    6987    7005       9
    6993    6984    6996       9    6990    6984    6993       9    6990    6984
    6996       9    6978    6984    6990      12    6978    6984    6993      12
    6978    6984    6996      12    6978    6987    6999      12    6978    6987
    7002      12    6978    6987    7005      12    7032    7017    7035       9
    7029    7017    7032       9    7029    7017    7035       9    7023    7014
    7026       9    7020    7014    7023       9    7020    7014    7026       9
    7008    7014    7020      12    7008    7014    7023      12    7008    7014
    7026      12    7008    7017    7029      12    7008    7017    7032      12
    7008    7017    7035      12    7062    7047    7065       9    7059    7047
    7062       9    7059    7047    7065       9    7053    7044    7056       9
    7050    7044    7053       9    7050    7044    7056       9    7038    7044
    7050      12    7038    7044    7053      12    7038    7044    7056      12
    7038    7047    7059      12    7038    7047    7062      12    7038    7047
    7065      12    7092    7077    7095       9    7089    7077    7092       9
    7089    7077    7095       9    7083    7074    7086       9    7080    7074
    7083       9    7080    7074    7086       9    7068    7074    7080      12
    7068    7074    7083      12    7068    7074    7086      12    7068    7077
    7089      12    7068    7077    7092      12    7068    7077    7095      12
    7122    7107    7125       9    7119    7107    7122       9    7119    7107
    7125       9    7113    7104    7116       9    7110    7104    7113       9
    7110    7104    7116       9    7098    7104    7110      12    7098    7104
    7113      12    7098    7104    7116      12    7098    7107    7119      12
    7098    7107    7122      12    7098    7107    7125      12    7152    7137
    7155       9    7149    7137    7152       9    7149    7137    7155       9
    7143    7134    7146       9    7140    7134    7143       9    7140    7134
    7146       9    7128    7134    7140      12    7128    7134    7143      12
    7128    7134    7146      12    7128    7137    7149      12    7128    7137
    7152      12    7128    7137    7155      12    7182    7167    7185       9
    7179    7167    7182       9    7179    7167    7185       9    7173    7164
    7176       9    7170    7164    7173       9    7170    7164    7176       9
    7158    7164    7170      12    7158    7164    7173      12    7158    7164
    7176      12    7158    7167    7179      12    7158    7167    7182      12
    7158    7167    7185      12    7212    7197    7215       9    7209    7197
    7212       9    7209    7197    7215       9    7203    7194    7206       9
    7200    7194    7203       9    7200    7194    7206       9    7188    7194
    7200      12    7188    7194    7203      12    7188    7194    7206      12
    7188    7197    7209      12    7188    7197    7212      12    7188    7197
    7215      12    7242    7227    7245       9    7239    7227    7242       9
    7239    7227    7245       9    7233    7224    7236       9    7230    7224
    7233       9    7230    7224    7236       9    7218    7224    7230      12
    7218    7224    7233      12    7218    7224    7236      12    7218    7227
    7239      12    7218    7227    7242      12    7218    7227    7245      12
    7272    7257    7275       9    7269    7257    7272       9    7269    7257
    7275       9    7263    7254    7266       9    7260    7254    7263       9
    7260    7254    7266       9    7248    7254    7260      12    7248    7254
    7263      12    7248    7254    7266      12    7248    7257    7269      12
    7248    7257    7272      12    7248    7257    7275      12    7302    7287
    7305       9    7299    7287    7302       9    7299    7287    7305       9
    7293    7284    7296       9    7290    7284    7293       9    7290    7284
    7296       9    7278    7284    7290      12    7278    7284    7293      12
    7278    7284    7296      12    7278    7287    7299      12    7278    7287
    7302      12    7278    7287    7305      12    7332    7317    7335       9
    7329    7317    7332       9    7329    7317    7335       9    7323    7314
    7326       9    7320    7314    7323       9    7320    7314    7326       9
    7308    7314    7320      12    7308    7314    7323      12    7308    7314
    7326      12    7308    7317    7329      12    7308    7317    7332      12
    7308    7317    7335      12    7362    7347    7365       9    7359    7347
    7362       9    7359    7347    7365       9    7353    7344    7356       9
    7350    7344    7353       9    7350    7344    7356       9    7338    7344
    7350      12    7338    7344    7353      12    7338    7344    7356      12
    7338    7347    7359      12    7338    7347    7362      12    7338    7347
    7365      12    7392    7377    7395       9    7389    7377    7392       9
    7389    7377    7395       9    7383    7374    7386       9    7380    7374
    7383       9    7380    7374    7386       9    7368    7374    7380      12
    7368    7374    7383      12    7368    7374    7386      12    7368    7377
    7389      12    7368    7377    7392      12    7368    7377    7395      12
    7422    7407    7425       9    7419    7407    7422       9    7419    7407
    7425       9    7413    7404    7416       9    7410    7404    7413       9
    7410    7404    7416       9    7398    7404    7410      12    7398    7404
    7413      12    7398    7404    7416      12    7398    7407    7419      12
    7398    7407    7422      12    7398    7407    7425      12    7452    7437
    7455       9    7449    7437    7452       9    7449    7437    7455       9
    7443    7434    7446       9    7440    7434    7443       9    7440    7434
    7446       9    7428    7434    7440      12    7428    7434    7443      12
    7428    7434    7446      12    7428    7437    7449      12    7428    7437
    7452      12    7428    7437    7455      12    7482    7467    7485       9
    7479    7467    7482       9    7479    7467    7485       9    7473    7464
    7476       9    7470    7464    7473       9    7470    7464    7476       9
    7458    7464    7470      12    7458    7464    7473      12    7458    7464
    7476      12    7458    7467    7479      12    7458    7467    7482      12
    7458    7467    7485      12    7512    7497    7515       9    7509    7497
    7512       9    7509    7497    7515       9    7503    7494    7506       9
    7500    7494    7503       9    7500    7494    7506       9    7488    7494
    7500      12    7488    7494    7503      12    7488    7494    7506      12
    7488    7497    7509      12    7488    7497    7512      12    7488    7497
    7515      12    7542    7527    7545       9    7539    7527    7542       9
    7539    7527    7545       9    7533    7524    7536       9    7530    7524
    7533       9    7530    7524    7536       9    7518    7524    7530      12
    7518    7524    7533      12    7518    7524    7536      12    7518    7527
    7539      12    7518    7527    7542      12    7518    7527    7545      12
    7572    7557    7575       9    7569    7557    7572       9    7569    7557
    7575       9    7563    7554    7566       9    7560    7554    7563       9
    7560    7554    7566       9    7548    7554    7560      12    7548    7554
    7563      12    7548    7554    7566      12    7548    7557    7569      12
    7548    7557    7572      12    7548    7557    7575      12    7602    7587
    7605       9    7599    7587    7602       9    7599    7587    7605       9
    7593    7584    7596       9    7590    7584    7593       9    7590    7584
    7596       9    7578    7584    7590      12    7578    7584    7593      12
    7578    7584    7596      12    7578    7587    7599      12    7578    7587
    7602      12    7578    7587    7605      12    7632    7617    7635       9
    7629    7617    7632       9    7629    7617    7635       9    7623    7614
    7626       9    7620    7614    7623       9    7620    7614    7626       9
    7608    7614    7620      12    7608    7614    7623      12    7608    7614
    7626      12    7608    7617    7629      12    7608    7617    7632      12
    7608    7617    7635      12    7662    7647    7665       9    7659    7647
    7662       9    7659    7647    7665       9    7653    7644    7656       9
    7650    7644    7653       9    7650    7644    7656       9    7638    7644
    7650      12    7638    7644    7653      12    7638    7644    7656      12
    7638    7647    7659      12    7638    7647    7662      12    7638    7647
    7665      12    7692    7677    7695       9    7689    7677    7692       9
    7689    7677    7695       9    7683    7674    7686       9    7680    7674
    7683       9    7680    7674    7686       9    7668    7674    7680      12
    7668    7674    7683      12    7668    7674    7686      12    7668    7677
    7689      12    7668    7677    7692      12    7668    7677    7695      12
    7722    7707    7725       9    7719    7707    7722       9    7719    7707
    7725       9    7713    7704    7716       9    7710    7704    7713       9
    7710    7704    7716       9    7698    7704    7710      12    7698    7704
    7713      12    7698    7704    7716      12    7698    7707    7719      12
    7698    7707    7722      12    7698    7707    7725      12    7752    7737
    7755       9    7749    7737    7752       9    7749    7737    7755       9
    7743    7734    7746       9    7740    7734    7743       9    7740    7734
    7746       9    7728    7734    7740      12    7728    7734    7743      12
    7728    7734    7746      12    7728    7737    7749      12    7728    7737
    7752      12    7728    7737    7755      12    7782    7767    7785       9
    7779    7767    7782       9    7779    7767    7785       9    7773    7764
    7776       9    7770    7764    7773       9    7770    7764    7776       9
    7758    7764    7770      12    7758    7764    7773      12    7758    7764
    7776      12    7758    7767    7779      12    7758    7767    7782      12
    7758    7767    7785      12    7812    7797    7815       9    7809    7797
    7812       9    7809    7797    7815       9    7803    7794    7806       9
    7800    7794    7803       9    7800    7794    7806       9    7788    7794
    7800      12    7788    7794    7803      12    7788    7794    7806      12
    7788    7797    7809      12    7788    7797    7812      12    7788    7797
    7815      12    7842    7827    7845       9    7839    7827    7842       9
    7839    7827    7845       9    7833    7824    7836       9    7830    7824
    7833       9    7830    7824    7836       9    7818    7824    7830      12
    7818    7824    7833      12    7818    7824    7836      12    7818    7827
    7839      12    7818    7827    7842      12    7818    7827    7845      12
    7872    7857    7875       9    7869    7857    7872       9    7869    7857
    7875       9    7863    7854    7866       9    7860    7854    7863       9
    7860    7854    7866       9    7848    7854    7860      12    7848    7854
    7863      12    7848    7854    7866      12    7848    7857    7869      12
    7848    7857    7872      12    7848    7857    7875      12    7902    7887
    7905       9    7899    7887    7902       9    7899    7887    7905       9
    7893    7884    7896       9    7890    7884    7893       9    7890    7884
    7896       9    7878    7884    7890      12    7878    7884    7893      12
    7878    7884    7896      12    7878    7887    7899      12    7878    7887
    7902      12    7878    7887    7905      12    7932    7917    7935       9
    7929    7917    7932       9    7929    7917    7935       9    7923    7914
    7926       9    7920    7914    7923       9    7920    7914    7926       9
    7908    7914    7920      12    7908    7914    7923      12    7908    7914
    7926      12    7908    7917    7929      12    7908    7917    7932      12
    7908    7917    7935      12    7962    7947    7965       9    7959    7947
    7962       9    7959    7947    7965       9    7953    7944    7956       9
    7950    7944    7953       9    7950    7944    7956       9    7938    7944
    7950      12    7938    7944    7953      12    7938    7944    7956      12
    7938    7947    7959      12    7938    7947    7962      12    7938    7947
    7965      12    7992    7977    7995       9    7989    7977    7992       9
    7989    7977    7995       9    7983    7974    7986       9    7980    7974
    7983       9    7980    7974    7986       9    7968    7974    7980      12
    7968    7974    7983      12    7968    7974    7986      12    7968    7977
    7989      12    7968    7977    7992      12    7968    7977    7995      12
    8022    8007    8025       9    8019    8007    8022       9    8019    8007
    8025       9    8013    8004    8016       9    8010    8004    8013       9
    8010    8004    8016       9    7998    8004    8010      12    7998    8004
    8013      12    7998    8004    8016      12    7998    8007    8019      12
    7998    8007    8022      12    7998    8007    8025      12    8052    8037
    8055       9    8049    8037    8052       9    8049    8037    8055       9
    8043    8034    8046       9    8040    8034    8043       9    8040    8034
    8046       9    8028    8034    8040      12    8028    8034    8043      12
    8028    8034    8046      12    8028    8037    8049      12    8028    8037
    8052      12    8028    8037    8055      12    8082    8067    8085       9
    8079    8067    8082       9    8079    8067    8085       9    8073    8064
    8076       9    8070    8064    8073       9    8070    8064    8076       9
    8058    8064    8070      12    8058    8064    8073      12    8058    8064
    8076      12    8058    8067    8079      12    8058    8067    8082      12
    8058    8067    8085      12    8112    8097    8115       9    8109    8097
    8112       9    8109    8097    8115       9    8103    8094    8106       9
    8100    8094    8103       9    8100    8094    8106       9    8088    8094
    8100      12    8088    8094    8103      12    8088    8094    8106      12
    8088    8097    8109      12    8088    8097    8112      12    8088    8097
    8115      12    8142    8127    8145       9    8139    8127    8142       9
    8139    8127    8145       9    8133    8124    8136       9    8130    8124
    8133       9    8130    8124    8136       9    8118    8124    8130      12
    8118    8124    8133      12    8118    8124    8136      12    8118    8127
    8139      12    8118    8127    8142      12    8118    8127    8145      12
    8172    8157    8175       9    8169    8157    8172       9    8169    8157
    8175       9    8163    8154    8166       9    8160    8154    8163       9
    8160    8154    8166       9    8148    8154    8160      12    8148    8154
    8163      12    8148    8154    8166      12    8148    8157    8169      12
    8148    8157    8172      12    8148    8157    8175      12    8202    8187
    8205       9    8199    8187    8202       9    8199    8187    8205       9
    8193    8184    8196       9    8190    8184    8193       9    8190    8184
    8196       9    8178    8184    8190      12    8178    8184    8193      12
    8178    8184    8196      12    8178    8187    8199      12    8178    8187
    8202      12    8178    8187    8205      12    8232    8217    8235       9
    8229    8217    8232       9    8229    8217    8235       9    8223    8214
    8226       9    8220    8214    8223       9    8220    8214    8226       9
    8208    8214    8220      12    8208    8214    8223      12    8208    8214
    8226      12    8208    8217    8229      12    8208    8217    8232      12
    8208    8217    8235      12    8262    8247    8265       9    8259    8247
    8262       9    8259    8247    8265       9    8253    8244    8256       9
    8250    8244    8253       9    8250    8244    8256       9    8238    8244
    8250      12    8238    8244    8253      12    8238    8244    8256      12
    8238    8247    8259      12    8238    8247    8262      12    8238    8247
    8265      12    8292    8277    8295       9    8289    8277    8292       9
    8289    8277    8295       9    8283    8274    8286       9    8280    8274
    8283       9    8280    8274    8286       9    8268    8274    8280      12
    8268    8274    8283      12    8268    8274    8286      12    8268    8277
    8289      12    8268    8277    8292      12    8268    8277    8295      12
    8322    8307    8325       9    8319    8307    8322       9    8319    8307
    8325       9    8313    8304    8316       9    8310    8304    8313       9
    8310    8304    8316       9    8298    8304    8310      12    8298    8304
    8313      12    8298    8304    8316      12    8298    8307    8319      12
    8298    8307    8322      12    8298    8307    8325      12    8352    8337
    8355       9    8349    8337    8352       9    8349    8337    8355       9
    8343    8334    8346       9    8340    8334    8343       9    8340    8334
    8346       9    8328    8334    8340      12    8328    8334    8343      12
    8328    8334    8346      12    8328    8337    8349      12    8328    8337
    8352      12    8328    8337    8355      12    8382    8367    8385       9
    8379    8367    8382       9    8379    8367    8385       9    8373    8364
    8376       9    8370    8364    8373       9    8370    8364    8376       9
    8358    8364    8370      12    8358    8364    8373      12    8358    8364
    8376      12    8358    8367    8379      12    8358    8367    8382      12
    8358    8367    8385      12    8412    8397    8415       9    8409    8397
    8412       9    8409    8397    8415       9    8403    8394    8406       9
    8400    8394    8403       9    8400    8394    8406       9    8388    8394
    8400      12    8388    8394    8403      12    8388    8394    8406      12
    8388    8397    8409      12    8388    8397    8412      12    8388    8397
    8415      12    8442    8427    8445       9    8439    8427    8442       9
    8439    8427    8445       9    8433    8424    8436       9    8430    8424
    8433       9    8430    8424    8436       9    8418    8424    8430      12
    8418    8424    8433      12    8418    8424    8436      12    8418    8427
    8439      12    8418    8427    8442      12    8418    8427    8445      12
    8472    8457    8475       9    8469    8457    8472       9    8469    8457
    8475       9    8463    8454    8466       9    8460    8454    8463       9
    8460    8454    8466       9    8448    8454    8460      12    8448    8454
    8463      12    8448    8454    8466      12    8448    8457    8469      12
    8448    8457    8472      12    8448    8457    8475      12    8502    8487
    8505       9    8499    8487    8502       9    8499    8487    8505       9
    8493    8484    8496       9    8490    8484    8493       9    8490    8484
    8496       9    8478    8484    8490      12    8478    8484    8493      12
    8478    8484    8496      12    8478    8487    8499      12    8478    8487
    8502      12    8478    8487    8505      12    8532    8517    8535       9
    8529    8517    8532       9    8529    8517    8535       9    8523    8514
    8526       9    8520    8514    8523       9    8520    8514    8526       9
    8508    8514    8520      12    8508    8514    8523      12    8508    8514
    8526      12    8508    8517    8529      12    8508    8517    8532      12
    8508    8517    8535      12    8562    8547    8565       9    8559    8547
    8562       9    8559    8547    8565       9    8553    8544    8556       9
    8550    8544    8553       9    8550    8544    8556       9    8538    8544
    8550      12    8538    8544    8553      12    8538    8544    8556      12
    8538    8547    8559      12    8538    8547    8562      12    8538    8547
    8565      12    8592    8577    8595       9    8589    8577    8592       9
    8589    8577    8595       9    8583    8574    8586       9    8580    8574
    8583       9    8580    8574    8586       9    8568    8574    8580      12
    8568    8574    8583      12    8568    8574    8586      12    8568    8577
    8589      12    8568    8577    8592      12    8568    8577    8595      12
    8622    8607    8625       9    8619    8607    8622       9    8619    8607
    8625       9    8613    8604    8616       9    8610    8604    8613       9
    8610    8604    8616       9    8598    8604    8610      12    8598    8604
    8613      12    8598    8604    8616      12    8598    8607    8619      12
    8598    8607    8622      12    8598    8607    8625      12    8652    8637
    8655       9    8649    8637    8652       9    8649    8637    8655       9
    8643    8634    8646       9    8640    8634    8643       9    8640    8634
    8646       9    8628    8634    8640      12    8628    8634    8643      12
    8628    8634    8646      12    8628    8637    8649      12    8628    8637
    8652      12    8628    8637    8655      12    8682    8667    8685       9
    8679    8667    8682       9    8679    8667    8685       9    8673    8664
    8676       9    8670    8664    8673       9    8670    8664    8676       9
    8658    8664    8670      12    8658    8664    8673      12    8658    8664
    8676      12    8658    8667    8679      12    8658    8667    8682      12
    8658    8667    8685      12    8712    8697    8715       9    8709    8697
    8712       9    8709    8697    8715       9    8703    8694    8706       9
    8700    8694    8703       9    8700    8694    8706       9    8688    8694
    8700      12    8688    8694    8703      12    8688    8694    8706      12
    8688    8697    8709      12    8688    8697    8712      12    8688    8697
    8715      12    8742    8727    8745       9    8739    8727    8742       9
    8739    8727    8745       9    8733    8724    8736       9    8730    8724
    8733       9    8730    8724    8736       9    8718    8724    8730      12
    8718    8724    8733      12    8718    8724    8736      12    8718    8727
    8739      12    8718    8727    8742      12    8718    8727    8745      12
    8772    8757    8775       9    8769    8757    8772       9    8769    8757
    8775       9    8763    8754    8766       9    8760    8754    8763       9
    8760    8754    8766       9    8748    8754    8760      12    8748    8754
    8763      12    8748    8754    8766      12    8748    8757    8769      12
    8748    8757    8772      12    8748    8757    8775      12    8802    8787
    8805       9    8799    8787    8802       9    8799    8787    8805       9
    8793    8784    8796       9    8790    8784    8793       9    8790    8784
    8796       9    8778    8784    8790      12    8778    8784    8793      12
    8778    8784    8796      12    8778    8787    8799      12    8778    8787
    8802      12    8778    8787    8805      12    8832    8817    8835       9
    8829    8817    8832       9    8829    8817    8835       9    8823    8814
    8826       9    8820    8814    8823       9    8820    8814    8826       9
    8808    8814    8820      12    8808    8814    8823      12    8808    8814
    8826      12    8808    8817    8829      12    8808    8817    8832      12
    8808    8817    8835      12    8862    8847    8865       9    8859    8847
    8862       9    8859    8847    8865       9    8853    8844    8856       9
    8850    8844    8853       9    8850    8844    8856       9    8838    8844
    8850      12    8838    8844    8853      12    8838    8844    8856      12
    8838    8847    8859      12    8838    8847    8862      12    8838    8847
    8865      12    8892    8877    8895       9    8889    8877    8892       9
    8889    8877    8895       9    8883    8874    8886       9    8880    8874
    8883       9    8880    8874    8886       9    8868    8874    8880      12
    8868    8874    8883      12    8868    8874    8886      12    8868    8877
    8889      12    8868    8877    8892      12    8868    8877    8895      12
    8922    8907    8925       9    8919    8907    8922       9    8919    8907
    8925       9    8913    8904    8916       9    8910    8904    8913       9
    8910    8904    8916       9    8898    8904    8910      12    8898    8904
    8913      12    8898    8904    8916      12    8898    8907    8919      12
    8898    8907    8922      12    8898    8907    8925      12    8952    8937
    8955       9    8949    8937    8952       9    8949    8937    8955       9
    8943    8934    8946       9    8940    8934    8943       9    8940    8934
    8946       9    8928    8934    8940      12    8928    8934    8943      12
    8928    8934    8946      12    8928    8937    8949      12    8928    8937
    8952      12    8928    8937    8955      12    8982    8967    8985       9
    8979    8967    8982       9    8979    8967    8985       9    8973    8964
    8976       9    8970    8964    8973       9    8970    8964    8976       9
    8958    8964    8970      12    8958    8964    8973      12    8958    8964
    8976      12    8958    8967    8979      12    8958    8967    8982      12
    8958    8967    8985      12    9012    8997    9015       9    9009    8997
    9012       9    9009    8997    9015       9    9003    8994    9006       9
    9000    8994    9003       9    9000    8994    9006       9    8988    8994
    9000      12    8988    8994    9003      12    8988    8994    9006      12
    8988    8997    9009      12    8988    8997    9012      12    8988    8997
    9015      12    9042    9027    9045       9    9039    9027    9042       9
    9039    9027    9045       9    9033    9024    9036       9    9030    9024
    9033       9    9030    9024    9036       9    9018    9024    9030      12
    9018    9024    9033      12    9018    9024    9036      12    9018    9027
    9039      12    9018    9027    9042      12    9018    9027    9045      12
    9072    9057    9075       9    9069    9057    9072       9    9069    9057
    9075       9    9063    9054    9066       9    9060    9054    9063       9
    9060    9054    9066       9    9048    9054    9060      12    9048    9054
    9063      12    9048    9054    9066      12    9048    9057    9069      12
    9048    9057    9072      12    9048    9057    9075      12    9102    9087
    9105       9    9099    9087    9102       9    9099    9087    9105       9
    9093    9084    9096       9    9090    9084    9093       9    9090    9084
    9096       9    9078    9084    9090      12    9078    9084    9093      12
    9078    9084    9096      12    9078    9087    9099      12    9078    9087
    9102      12    9078    9087    9105      12    9132    9117    9135       9
    9129    9117    9132       9    9129    9117    9135       9    9123    9114
    9126       9    9120    9114    9123       9    9120    9114    9126       9
    9108    9114    9120      12    9108    9114    9123      12    9108    9114
    9126      12    9108    9117    9129      12    9108    9117    9132      12
    9108    9117    9135      12    9162    9147    9165       9    9159    9147
    9162       9    9159    9147    9165       9    9153    9144    9156       9
    9150    9144    9153       9    9150    9144    9156       9    9138    9144
    9150      12    9138    9144    9153      12    9138    9144    9156      12
    9138    9147    9159      12    9138    9147    9162      12    9138    9147
    9165      12    9192    9177    9195       9    9189    9177    9192       9
    9189    9177    9195       9    9183    9174    9186       9    9180    9174
    9183       9    9180    9174    9186       9    9168    9174    9180      12
    9168    9174    9183      12    9168    9174    9186      12    9168    9177
    9189      12    9168    9177    9192      12    9168    9177    9195      12
    9222    9207    9225       9    9219    9207    9222       9    9219    9207
    9225       9    9213    9204    9216       9    9210    9204    9213       9
    9210    9204    9216       9    9198    9204    9210      12    9198    9204
    9213      12    9198    9204    9216      12    9198    9207    9219      12
    9198    9207    9222      12    9198    9207    9225      12    9252    9237
    9255       9    9249    9237    9252       9    9249    9237    9255       9
    9243    9234    9246       9    9240    9234    9243       9    9240    9234
    9246       9    9228    9234    9240      12    9228    9234    9243      12
    9228    9234    9246      12    9228    9237    9249      12    9228    9237
    9252      12    9228    9237    9255      12    9282    9267    9285       9
    9279    9267    9282       9    9279    9267    9285       9    9273    9264
    9276       9    9270    9264    9273       9    9270    9264    9276       9
    9258    9264    9270      12    9258    9264    9273      12    9258    9264
    9276      12    9258    9267    9279      12    9258    9267    9282      12
    9258    9267    9285      12    9312    9297    9315       9    9309    9297
    9312       9    9309    9297    9315       9    9303    9294    9306       9
    9300    9294    9303       9    9300    9294    9306       9    9288    9294
    9300      12    9288    9294    9303      12    9288    9294    9306      12
    9288    9297    9309      12    9288    9297    9312      12    9288    9297
    9315      12    9342    9327    9345       9    9339    9327    9342       9
    9339    9327    9345       9    9333    9324    9336       9    9330    9324
    9333       9    9330    9324    9336       9    9318    9324    9330      12
    9318    9324    9333      12    9318    9324    9336      12    9318    9327
    9339      12    9318    9327    9342      12    9318    9327    9345      12
    9372    9357    9375       9    9369    9357    9372       9    9369    9357
    9375       9    9363    9354    9366       9    9360    9354    9363       9
    9360    9354    9366       9    9348    9354    9360      12    9348    9354
    9363      12    9348    9354    9366      12    9348    9357    9369      12
    9348    9357    9372      12    9348    9357    9375      12    9402    9387
    9405       9    9399    9387    9402       9    9399    9387    9405       9
    9393    9384    9396       9    9390    9384    9393       9    9390    9384
    9396       9    9378    9384    9390      12    9378    9384    9393      12
    9378    9384    9396      12    9378    9387    9399      12    9378    9387
    9402      12    9378    9387    9405      12    9432    9417    9435       9
    9429    9417    9432       9    9429    9417    9435       9    9423    9414
    9426       9    9420    9414    9423       9    9420    9414    9426       9
    9408    9414    9420      12    9408    9414    9423      12    9408    9414
    9426      12    9408    9417    9429      12    9408    9417    9432      12
    9408    9417    9435      12    9462    9447    9465       9    9459    9447
    9462       9    9459    9447    9465       9    9453    9444    9456       9
    9450    9444    9453       9    9450    9444    9456       9    9438    9444
    9450      12    9438    9444    9453      12    9438    9444    9456      12
    9438    9447    9459      12    9438    9447    9462      12    9438    9447
    9465      12    9492    9477    9495       9    9489    9477    9492       9
    9489    9477    9495       9    9483    9474    9486       9    9480    9474
    9483       9    9480    9474    9486       9    9468    9474    9480      12
    9468    9474    9483      12    9468    9474    9486      12    9468    9477
    9489      12    9468    9477    9492      12    9468    9477    9495      12
    9522    9507    9525       9    9519    9507    9522       9    9519    9507
    9525       9    9513    9504    9516       9    9510    9504    9513       9
    9510    9504    9516       9    9498    9504    9510      12    9498    9504
    9513      12    9498    9504    9516      12    9498    9507    9519      12
    9498    9507    9522      12    9498    9507    9525      12    9552    9537
    9555       9    9549    9537    9552       9    9549    9537    9555       9
    9543    9534    9546       9    9540    9534    9543       9    9540    9534
    9546       9    9528    9534    9540      12    9528    9534    9543      12
    9528    9534    9546      12    9528    9537    9549      12    9528    9537
    9552      12    9528    9537    9555      12    9582    9567    9585       9
    9579    9567    9582       9    9579    9567    9585       9    9573    9564
    9576       9    9570    9564    9573       9    9570    9564    9576       9
    9558    9564    9570      12    9558    9564    9573      12    9558    9564
    9576      12    9558    9567    9579      12    9558    9567    9582      12
    9558    9567    9585      12    9612    9597    9615       9    9609    9597
    9612       9    9609    9597    9615       9    9603    9594    9606       9
    9600    9594    9603       9    9600    9594    9606       9    9588    9594
    9600      12    9588    9594    9603      12    9588    9594    9606      12
    9588    9597    9609      12    9588    9597    9612      12    9588    9597
    9615      12    9642    9627    9645       9    9639    9627    9642       9
    9639    9627    9645       9    9633    9624    9636       9    9630    9624
    9633       9    9630    9624    9636       9    9618    9624    9630      12
    9618    9624    9633      12    9618    9624    9636      12    9618    9627
    9639      12    9618    9627    9642      12    9618    9627    9645      12
    9672    9657    9675       9    9669    9657    9672       9    9669    9657
    9675       9    9663    9654    9666       9    9660    9654    9663       9
    9660    9654    9666       9    9648    9654    9660      12    9648    9654
    9663      12    9648    9654    9666      12    9648    9657    9669      12
    9648    9657    9672      12    9648    9657    9675      12    9702    9687
    9705       9    9699    9687    9702       9    9699    9687    9705       9
    9693    9684    9696       9    9690    9684    9693       9    9690    9684
    9696       9    9678    9684    9690      12    9678    9684    9693      12
    9678    9684    9696      12    9678    9687    9699      12    9678    9687
    9702      12    9678    9687    9705      12    9732    9717    9735       9
    9729    9717    9732       9    9729    9717    9735       9    9723    9714
    9726       9    9720    9714    9723       9    9720    9714    9726       9
    9708    9714    9720      12    9708    9714    9723      12    9708    9714
    9726      12    9708    9717    9729      12    9708    9717    9732      12
    9708    9717    9735      12    9762    9747    9765       9    9759    9747
    9762       9    9759    9747    9765       9    9753    9744    9756       9
    9750    9744    9753       9    9750    9744    9756       9    9738    9744
    9750      12    9738    9744    9753      12    9738    9744    9756      12
    9738    9747    9759      12    9738    9747    9762      12    9738    9747
    9765      12    9792    9777    9795       9    9789    9777    9792       9
    9789    9777    9795       9    9783    9774    9786       9    9780    9774
    9783       9    9780    9774    9786       9    9768    9774    9780      12
    9768    9774    9783      12    9768    9774    9786      12    9768    9777
    9789      12    9768    9777    9792      12    9768    9777    9795      12
    9822    9807    9825       9    9819    9807    9822       9    9819    9807
    9825       9    9813    9804    9816       9    9810    9804    9813       9
    9810    9804    9816       9    9798    9804    9810      12    9798    9804
    9813      12    9798    9804    9816      12    9798    9807    9819      12
    9798    9807    9822      12    9798    9807    9825      12    9852    9837
    9855       9    9849    9837    9852       9    9849    9837    9855       9
    9843    9834    9846       9    9840    9834    9843       9    9840    9834
    9846       9    9828    9834    9840      12    9828    9834    9843      12
    9828    9834    9846      12    9828    9837    9849      12    9828    9837
    9852      12    9828    9837    9855      12    9882    9867    9885       9
    9879    9867    9882       9    9879    9867    9885       9    9873    9864
    9876       9    9870    9864    9873       9    9870    9864    9876       9
    9858    9864    9870      12    9858    9864    9873      12    9858    9864
    9876      12    9858    9867    9879      12    9858    9867    9882      12
    9858    9867    9885      12    9912    9897    9915       9    9909    9897
    9912       9    9909    9897    9915       9    9903    9894    9906       9
    9900    9894    9903       9    9900    9894    9906       9    9888    9894
    9900      12    9888    9894    9903      12    9888    9894    9906      12
    9888    9897    9909      12    9888    9897    9912      12    9888    9897
    9915      12    9942    9927    9945       9    9939    9927    9942       9
    9939    9927    9945       9    9933    9924    9936       9    9930    9924
    9933       9    9930    9924    9936       9    9918    9924    9930      12
    9918    9924    9933      12    9918    9924    9936      12    9918    9927
    9939      12    9918    9927    9942      12    9918    9927    9945      12
    9972    9957    9975       9    9969    9957    9972       9    9969    9957
    9975       9    9963    9954    9966       9    9960    9954    9963       9
    9960    9954    9966       9    9948    9954    9960      12    9948    9954
    9963      12    9948    9954    9966      12    9948    9957    9969      12
    9948    9957    9972      12    9948    9957    9975      12   10002    9987
   10005       9    9999    9987   10002       9    9999    9987   10005       9
    9993    9984    9996       9    9990    9984    9993       9    9990    9984
    9996       9    9978    9984    9990      12    9978    9984    9993      12
    9978    9984    9996      12    9978    9987    9999      12    9978    9987
   10002      12    9978    9987   10005      12   10032   10017   10035       9
   10029   10017   10032       9   10029   10017   10035       9   10023   10014
   10026       9   10020   10014   10023       9   10020   10014   10026       9
   10008   10014   10020      12   10008   10014   10023      12   10008   10014
   10026      12   10008   10017   10029      12   10008   10017   10032      12
   10008   10017   10035      12   10062   10047   10065       9   10059   10047
   10062       9   10059   10047   10065       9   10053   10044   10056       9
   10050   10044   10053       9   10050   10044   10056       9   10038   10044
   10050      12   10038   10044   10053      12   10038   10044   10056      12
   10038   10047   10059      12   10038   10047   10062      12   10038   10047
   10065      12   10092   10077   10095       9   10089   10077   10092       9
   10089   10077   10095       9   10083   10074   10086       9   10080   10074
   10083       9   10080   10074   10086       9   10068   10074   10080      12
   10068   10074   10083      12   10068   10074   10086      12   10068   10077
   10089      12   10068   10077   10092      12   10068   10077   10095      12
   10122   10107   10125       9   10119   10107   10122       9   10119   10107
   10125       9   10113   10104   10116       9   10110   10104   10113       9
   10110   10104   10116       9   10098   10104   10110      12   10098   10104
   10113      12   10098   10104   10116      12   10098   10107   10119      12
   10098   10107   10122      12   10098   10107   10125      12   10152   10137
   10155       9   10149   10137   10152       9   10149   10137   10155       9
   10143   10134   10146       9   10140   10134   10143       9   10140   10134
   10146       9   10128   10134   10140      12   10128   10134   10143      12
   10128   10134   10146      12   10128   10137   10149      12   10128   10137
   10152      12   10128   10137   10155      12   10182   10167   10185       9
   10179   10167   10182       9   10179   10167   10185       9   10173   10164
   10176       9   10170   10164   10173       9   10170   10164   10176       9
   10158   10164   10170      12   10158   10164   10173      12   10158   10164
   10176      12   10158   10167   10179      12   10158   10167   10182      12
   10158   10167   10185      12   10212   10197   10215       9   10209   10197
   10212       9   10209   10197   10215       9   10203   10194   10206       9
   10200   10194   10203       9   10200   10194   10206       9   10188   10194
   10200      12   10188   10194   10203      12   10188   10194   10206      12
   10188   10197   10209      12   10188   10197   10212      12   10188   10197
   10215      12   10242   10227   10245       9   10239   10227   10242       9
   10239   10227   10245       9   10233   10224   10236       9   10230   10224
   10233       9   10230   10224   10236       9   10218   10224   10230      12
   10218   10224   10233      12   10218   10224   10236      12   10218   10227
   10239      12   10218   10227   10242      12   10218   10227   10245      12
   10272   10257   10275       9   10269   10257   10272       9   10269   10257
   10275       9   10263   10254   10266       9   10260   10254   10263       9
   10260   10254   10266       9   10248   10254   10260      12   10248   10254
   10263      12   10248   10254   10266      12   10248   10257   10269      12
   10248   10257   10272      12   10248   10257   10275      12   10302   10287
   10305       9   10299   10287   10302       9   10299   10287   10305       9
   10293   10284   10296       9   10290   10284   10293       9   10290   10284
   10296       9   10278   10284   10290      12   10278   10284   10293      12
   10278   10284   10296      12   10278   10287   10299      12   10278   10287
   10302      12   10278   10287   10305      12
%FLAG ANGLES_WITHOUT_HYDROGEN                                                   
%FORMAT(10I8)                                                                   
      57      69      63       2      54      66      60       2      51      63
      69       2      48      60      66       2      45      33      51       3
      42      30      48       3      39      33      45       3      39      33
      51       2      39      57      69       2      36      30      42       3
      36      30      48       2      36      54      66       2      33      39
      57       2      33      51      63       2      30      36      54       2
      30      48      60       2      27      15      45       3      24      12
      42       3      21       9      39       5      21      15      27       2
      21      15      45       3      18       6      36       5      18      12
      24       2      18      12      42       3      15      21      24       2
      15      27      18       2      15      45      33       6      12      18
      27       2      12      24      21       2      12      42      30       6
       9      21      15       7       9      21      24       7       9      39
      33       7       9      39      57       7       6      18      12       7
       6      18      27       7       6      36      30       7       6      36
      54       7       3      45      15       8       3      45      33       8
       0      42      12       8       0      42      30       8     114     108
     117      10     111     108     114      11     111     108     117      11
     144     138     147      10     141     138     144      11     141     138
     147      11     174     168     177      10     171     168     174      11
     171     168     177      11     204     198     207      10     201     198
     204      11     201     198     207      11     234     228     237      10
     231     228     234      11     231     228     237      11     264     258
     267      10     261     258     264      11     261     258     267      11
     294     288     297      10     291     288     294      11     291     288
     297      11     324     318     327      10     321     318     324      11
     321     318     327      11     354     348     357      10     351     348
     354      11     351     348     357      11     384     378     387      10
     381     378     384      11     381     378     387      11     414     408
     417      10     411     408     414      11     411     408     417      11
     444     438     447      10     441     438     444      11     441     438
     447      11     474     468     477      10     471     468     474      11
     471     468     477      11     504     498     507      10     501     498
     504      11     501     498     507      11     534     528     537      10
     531     528     534      11     531     528     537      11     564     558
     567      10     561     558     564      11     561     558     567      11
     594     588     597      10     591     588     594      11     591     588
     597      11     624     618     627      10     621     618     624      11
     621     618     627      11     654     648     657      10     651     648
     654      11     651     648     657      11     684     678     687      10
     681     678     684      11     681     678     687      11     714     708
     717      10     711     708     714      11     711     708     717      11
     744     738     747      10     741     738     744      11     741     738
     747      11     774     768     777      10     771     768     774      11
     771     768     777      11     804     798     807      10     801     798
     804      11     801     798     807      11     834     828     837      10
     831     828     834      11     831     828     837      11     864     858
     867      10     861     858     864      11     861     858     867      11
     894     888     897      10     891     888     894      11     891     888
     897      11     924     918     927      10     921     918     924      11
     921     918     927      11     954     948     957      10     951     948
     954      11     951     948     957      11     984     978     987      10
     981     978     984      11     981     978     987      11    1014    1008
    1017      10    1011    1008    1014      11    1011    1008    1017      11
    1044    1038    1047      10    1041    1038    1044      11    1041    1038
    1047      11    1074    1068    1077      10    1071    1068    1074      11
    1071    1068    1077      11    1104    1098    1107      10    1101    1098
    1104      11    1101    1098    1107      11    1134    1128    1137      10
    1131    1128    1134      11    1131    1128    1137      11    1164    1158
    1167      10    1161    1158    1164      11    1161    1158    1167      11
    1194    1188    1197      10    1191    1188    1194      11    1191    1188
    1197      11    1224    1218    1227      10    1221    1218    1224      11
    1221    1218    1227      11    1254    1248    1257      10    1251    1248
    1254      11    1251    1248    1257      11    1284    1278    1287      10
    1281    1278    1284      11    1281    1278    1287      11    1314    1308
    1317      10    1311    1308    1314      11    1311    1308    1317      11
    1344    1338    1347      10    1341    1338    1344      11    1341    1338
    1347      11    1374    1368    1377      10    1371    1368    1374      11
    1371    1368    1377      11    1404    1398    1407      10    1401    1398
    1404      11    1401    1398    1407      11    1434    1428    1437      10
    1431    1428    1434      11    1431    1428    1437      11    1464    1458
    1467      10    1461    1458    1464      11    1461    1458    1467      11
    1494    1488    1497      10    1491    1488    1494      11    1491    1488
    1497      11    1524    1518    1527      10    1521    1518    1524      11
    1521    1518    1527      11    1554    1548    1557      10    1551    1548
    1554      11    1551    1548    1557      11    1584    1578    1587      10
    1581    1578    1584      11    1581    1578    1587      11    1614    1608
    1617      10    1611    1608    1614      11    1611    1608    1617      11
    1644    1638    1647      10    1641    1638    1644      11    1641    1638
    1647      11    1674    1668    1677      10    1671    1668    1674      11
    1671    1668    1677      11    1704    1698    1707      10    1701    1698
    1704      11    1701    1698    1707      11    1734    1728    1737      10
    1731    1728    1734      11    1731    1728    1737      11    1764    1758
    1767      10    1761    1758    1764      11    1761    1758    1767      11
    1794    1788    1797      10    1791    1788    1794      11    1791    1788
    1797      11    1824    1818    1827      10    1821    1818    1824      11
    1821    1818    1827      11    1854    1848    1857      10    1851    1848
    1854      11    1851    1848    1857      11    1884    1878    1887      10
    1881    1878    1884      11    1881    1878    1887      11    1914    1908
    1917      10    1911    1908    1914      11    1911    1908    1917      11
    1944    1938    1947      10    1941    1938    1944      11    1941    1938
    1947      11    1974    1968    1977      10    1971    1968    1974      11
    1971    1968    1977      11    2004    1998    2007      10    2001    1998
    2004      11    2001    1998    2007      11    2034    2028    2037      10
    2031    2028    2034      11    2031    2028    2037      11    2064    2058
    2067      10    2061    2058    2064      11    2061    2058    2067      11
    2094    2088    2097      10    2091    2088    2094      11    2091    2088
    2097      11    2124    2118    2127      10    2121    2118    2124      11
    2121    2118    2127      11    2154    2148    2157      10    2151    2148
    2154      11    2151    2148    2157      11    2184    2178    2187      10
    2181    2178    2184      11    2181    2178    2187      11    2214    2208
    2217      10    2211    2208    2214      11    2211    2208    2217      11
    2244    2238    2247      10    2241    2238    2244      11    2241    2238
    2247      11    2274    2268    2277      10    2271    2268    2274      11
    2271    2268    2277      11    2304    2298    2307      10    2301    2298
    2304      11    2301    2298    2307      11    2334    2328    2337      10
    2331    2328    2334      11    2331    2328    2337      11    2364    2358
    2367      10    2361    2358    2364      11    2361    2358    2367      11
    2394    2388    2397      10    2391    2388    2394      11    2391    2388
    2397      11    2424    2418    2427      10    2421    2418    2424      11
    2421    2418    2427      11    2454    2448    2457      10    2451    2448
    2454      11    2451    2448    2457      11    2484    2478    2487      10
    2481    2478    2484      11    2481    2478    2487      11    2514    2508
    2517      10    2511    2508    2514      11    2511    2508    2517      11
    2544    2538    2547      10    2541    2538    2544      11    2541    2538
    2547      11    2574    2568    2577      10    2571    2568    2574      11
    2571    2568    2577      11    2604    2598    2607      10    2601    2598
    2604      11    2601    2598    2607      11    2634    2628    2637      10
    2631    2628    2634      11    2631    2628    2637      11    2664    2658
    2667      10    2661    2658    2664      11    2661    2658    2667      11
    2694    2688    2697      10    2691    2688    2694      11    2691    2688
    2697      11    2724    2718    2727      10    2721    2718    2724      11
    2721    2718    2727      11    2754    2748    2757      10    2751    2748
    2754      11    2751    2748    2757      11    2784    2778    2787      10
    2781    2778    2784      11    2781    2778    2787      11    2814    2808
    2817      10    2811    2808    2814      11    2811    2808    2817      11
    2844    2838    2847      10    2841    2838    2844      11    2841    2838
    2847      11    2874    2868    2877      10    2871    2868    2874      11
    2871    2868    2877      11    2904    2898    2907      10    2901    2898
    2904      11    2901    2898    2907      11    2934    2928    2937      10
    2931    2928    2934      11    2931    2928    2937      11    2964    2958
    2967      10    2961    2958    2964      11    2961    2958    2967      11
    2994    2988    2997      10    2991    2988    2994      11    2991    2988
    2997      11    3024    3018    3027      10    3021    3018    3024      11
    3021    3018    3027      11    3054    3048    3057      10    3051    3048
    3054      11    3051    3048    3057      11    3084    3078    3087      10
    3081    3078    3084      11    3081    3078    3087      11    3114    3108
    3117      10    3111    3108    3114      11    3111    3108    3117      11
    3144    3138    3147      10    3141    3138    3144      11    3141    3138
    3147      11    3174    3168    3177      10    3171    3168    3174      11
    3171    3168    3177      11    3204    3198    3207      10    3201    3198
    3204      11    3201    3198    3207      11    3234    3228    3237      10
    3231    3228    3234      11    3231    3228    3237      11    3264    3258
    3267      10    3261    3258    3264      11    3261    3258    3267      11
    3294    3288    3297      10    3291    3288    3294      11    3291    3288
    3297      11    3324    3318    3327      10    3321    3318    3324      11
    3321    3318    3327      11    3354    3348    3357      10    3351    3348
    3354      11    3351    3348    3357      11    3384    3378    3387      10
    3381    3378    3384      11    3381    3378    3387      11    3414    3408
    3417      10    3411    3408    3414      11    3411    3408    3417      11
    3444    3438    3447      10    3441    3438    3444      11    3441    3438
    3447      11    3474    3468    3477      10    3471    3468    3474      11
    3471    3468    3477      11    3504    3498    3507      10    3501    3498
    3504      11    3501    3498    3507      11    3534    3528    3537      10
    3531    3528    3534      11    3531    3528    3537      11    3564    3558
    3567      10    3561    3558    3564      11    3561    3558    3567      11
    3594    3588    3597      10    3591    3588    3594      11    3591    3588
    3597      11    3624    3618    3627      10    3621    3618    3624      11
    3621    3618    3627      11    3654    3648    3657      10    3651    3648
    3654      11    3651    3648    3657      11    3684    3678    3687      10
    3681    3678    3684      11    3681    3678    3687      11    3714    3708
    3717      10    3711    3708    3714      11    3711    3708    3717      11
    3744    3738    3747      10    3741    3738    3744      11    3741    3738
    3747      11    3774    3768    3777      10    3771    3768    3774      11
    3771    3768    3777      11    3804    3798    3807      10    3801    3798
    3804      11    3801    3798    3807      11    3834    3828    3837      10
    3831    3828    3834      11    3831    3828    3837      11    3864    3858
    3867      10    3861    3858    3864      11    3861    3858    3867      11
    3894    3888    3897      10    3891    3888    3894      11    3891    3888
    3897      11    3924    3918    3927      10    3921    3918    3924      11
    3921    3918    3927      11    3954    3948    3957      10    3951    3948
    3954      11    3951    3948    3957      11    3984    3978    3987      10
    3981    3978    3984      11    3981    3978    3987      11    4014    4008
    4017      10    4011    4008    4014      11    4011    4008    4017      11
    4044    4038    4047      10    4041    4038    4044      11    4041    4038
    4047      11    4074    4068    4077      10    4071    4068    4074      11
    4071    4068    4077      11    4104    4098    4107      10    4101    4098
    4104      11    4101    4098    4107      11    4134    4128    4137      10
    4131    4128    4134      11    4131    4128    4137      11    4164    4158
    4167      10    4161    4158    4164      11    4161    4158    4167      11
    4194    4188    4197      10    4191    4188    4194      11    4191    4188
    4197      11    4224    4218    4227      10    4221    4218    4224      11
    4221    4218    4227      11    4254    4248    4257      10    4251    4248
    4254      11    4251    4248    4257      11    4284    4278    4287      10
    4281    4278    4284      11    4281    4278    4287      11    4314    4308
    4317      10    4311    4308    4314      11    4311    4308    4317      11
    4344    4338    4347      10    4341    4338    4344      11    4341    4338
    4347      11    4374    4368    4377      10    4371    4368    4374      11
    4371    4368    4377      11    4404    4398    4407      10    4401    4398
    4404      11    4401    4398    4407      11    4434    4428    4437      10
    4431    4428    4434      11    4431    4428    4437      11    4464    4458
    4467      10    4461    4458    4464      11    4461    4458    4467      11
    4494    4488    4497      10    4491    4488    4494      11    4491    4488
    4497      11    4524    4518    4527      10    4521    4518    4524      11
    4521    4518    4527      11    4554    4548    4557      10    4551    4548
    4554      11    4551    4548    4557      11    4584    4578    4587      10
    4581    4578    4584      11    4581    4578    4587      11    4614    4608
    4617      10    4611    4608    4614      11    4611    4608    4617      11
    4644    4638    4647      10    4641    4638    4644      11    4641    4638
    4647      11    4674    4668    4677      10    4671    4668    4674      11
    4671    4668    4677      11    4704    4698    4707      10    4701    4698
    4704      11    4701    4698    4707      11    4734    4728    4737      10
    4731    4728    4734      11    4731    4728    4737      11    4764    4758
    4767      10    4761    4758    4764      11    4761    4758    4767      11
    4794    4788    4797      10    4791    4788    4794      11    4791    4788
    4797      11    4824    4818    4827      10    4821    4818    4824      11
    4821    4818    4827      11    4854    4848    4857      10    4851    4848
    4854      11    4851    4848    4857      11    4884    4878    4887      10
    4881    4878    4884      11    4881    4878    4887      11    4914    4908
    4917      10    4911    4908    4914      11    4911    4908    4917      11
    4944    4938    4947      10    4941    4938    4944      11    4941    4938
    4947      11    4974    4968    4977      10    4971    4968    4974      11
    4971    4968    4977      11    5004    4998    5007      10    5001    4998
    5004      11    5001    4998    5007      11    5034    5028    5037      10
    5031    5028    5034      11    5031    5028    5037      11    5064    5058
    5067      10    5061    5058    5064      11    5061    5058    5067      11
    5094    5088    5097      10    5091    5088    5094      11    5091    5088
    5097      11    5124    5118    5127      10    5121    5118    5124      11
    5121    5118    5127      11    5154    5148    5157      10    5151    5148
    5154      11    5151    5148    5157      11    5184    5178    5187      10
    5181    5178    5184      11    5181    5178    5187      11    5214    5208
    5217      10    5211    5208    5214      11    5211    5208    5217      11
    5244    5238    5247      10    5241    5238    5244      11    5241    5238
    5247      11    5274    5268    5277      10    5271    5268    5274      11
    5271    5268    5277      11    5304    5298    5307      10    5301    5298
    5304      11    5301    5298    5307      11    5334    5328    5337      10
    5331    5328    5334      11    5331    5328    5337      11    5364    5358
    5367      10    5361    5358    5364      11    5361    5358    5367      11
    5394    5388    5397      10    5391    5388    5394      11    5391    5388
    5397      11    5424    5418    5427      10    5421    5418    5424      11
    5421    5418    5427      11    5454    5448    5457      10    5451    5448
    5454      11    5451    5448    5457      11    5484    5478    5487      10
    5481    5478    5484      11    5481    5478    5487      11    5514    5508
    5517      10    5511    5508    5514      11    5511    5508    5517      11
    5544    5538    5547      10    5541    5538    5544      11    5541    5538
    5547      11    5574    5568    5577      10    5571    5568    5574      11
    5571    5568    5577      11    5604    5598    5607      10    5601    5598
    5604      11    5601    5598    5607      11    5634    5628    5637      10
    5631    5628    5634      11    5631    5628    5637      11    5664    5658
    5667      10    5661    5658    5664      11    5661    5658    5667      11
    5694    5688    5697      10    5691    5688    5694      11    5691    5688
    5697      11    5724    5718    5727      10    5721    5718    5724      11
    5721    5718    5727      11    5754    5748    5757      10    5751    5748
    5754      11    5751    5748    5757      11    5784    5778    5787      10
    5781    5778    5784      11    5781    5778    5787      11    5814    5808
    5817      10    5811    5808    5814      11    5811    5808    5817      11
    5844    5838    5847      10    5841    5838    5844      11    5841    5838
    5847      11    5874    5868    5877      10    5871    5868    5874      11
    5871    5868    5877      11    5904    5898    5907      10    5901    5898
    5904      11    5901    5898    5907      11    5934    5928    5937      10
    5931    5928    5934      11    5931    5928    5937      11    5964    5958
    5967      10    5961    5958    5964      11    5961    5958    5967      11
    5994    5988    5997      10    5991    5988    5994      11    5991    5988
    5997      11    6024    6018    6027      10    6021    6018    6024      11
    6021    6018    6027      11    6054    6048    6057      10    6051    6048
    6054      11    6051    6048    6057      11    6084    6078    6087      10
    6081    6078    6084      11    6081    6078    6087      11    6114    6108
    6117      10    6111    6108    6114      11    6111    6108    6117      11
    6144    6138    6147      10    6141    6138    6144      11    6141    6138
    6147      11    6174    6168    6177      10    6171    6168    6174      11
    6171    6168    6177      11    6204    6198    6207      10    6201    6198
    6204      11    6201    6198    6207      11    6234    6228    6237      10
    6231    6228    6234      11    6231    6228    6237      11    6264    6258
    6267      10    6261    6258    6264      11    6261    6258    6267      11
    6294    6288    6297      10    6291    6288    6294      11    6291    6288
    6297      11    6324    6318    6327      10    6321    6318    6324      11
    6321    6318    6327      11    6354    6348    6357      10    6351    6348
    6354      11    6351    6348    6357      11    6384    6378    6387      10
    6381    6378    6384      11    6381    6378    6387      11    6414    6408
    6417      10    6411    6408    6414      11    6411    6408    6417      11
    6444    6438    6447      10    6441    6438    6444      11    6441    6438
    6447      11    6474    6468    6477      10    6471    6468    6474      11
    6471    6468    6477      11    6504    6498    6507      10    6501    6498
    6504      11    6501    6498    6507      11    6534    6528    6537      10
    6531    6528    6534      11    6531    6528    6537      11    6564    6558
    6567      10    6561    6558    6564      11    6561    6558    6567      11
    6594    6588    6597      10    6591    6588    6594      11    6591    6588
    6597      11    6624    6618    6627      10    6621    6618    6624      11
    6621    6618    6627      11    6654    6648    6657      10    6651    6648
    6654      11    6651    6648    6657      11    6684    6678    6687      10
    6681    6678    6684      11    6681    6678    6687      11    6714    6708
    6717      10    6711    6708    6714      11    6711    6708    6717      11
    6744    6738    6747      10    6741    6738    6744      11    6741    6738
    6747      11    6774    6768    6777      10    6771    6768    6774      11
    6771    6768    6777      11    6804    6798    6807      10    6801    6798
    6804      11    6801    6798    6807      11    6834    6828    6837      10
    6831    6828    6834      11    6831    6828    6837      11    6864    6858
    6867      10    6861    6858    6864      11    6861    6858    6867      11
    6894    6888    6897      10    6891    6888    6894      11    6891    6888
    6897      11    6924    6918    6927      10    6921    6918    6924      11
    6921    6918    6927      11    6954    6948    6957      10    6951    6948
    6954      11    6951    6948    6957      11    6984    6978    6987      10
    6981    6978    6984      11    6981    6978    6987      11    7014    7008
    7017      10    7011    7008    7014      11    7011    7008    7017      11
    7044    7038    7047      10    7041    7038    7044      11    7041    7038
    7047      11    7074    7068    7077      10    7071    7068    7074      11
    7071    7068    7077      11    7104    7098    7107      10    7101    7098
    7104      11    7101    7098    7107      11    7134    7128    7137      10
    7131    7128    7134      11    7131    7128    7137      11    7164    7158
    7167      10    7161    7158    7164      11    7161    7158    7167      11
    7194    7188    7197      10    7191    7188    7194      11    7191    7188
    7197      11    7224    7218    7227      10    7221    7218    7224      11
    7221    7218    7227      11    7254    7248    7257      10    7251    7248
    7254      11    7251    7248    7257      11    7284    7278    7287      10
    7281    7278    7284      11    7281    7278    7287      11    7314    7308
    7317      10    7311    7308    7314      11    7311    7308    7317      11
    7344    7338    7347      10    7341    7338    7344      11    7341    7338
    7347      11    7374    7368    7377      10    7371    7368    7374      11
    7371    7368    7377      11    7404    7398    7407      10    7401    7398
    7404      11    7401    7398    7407      11    7434    7428    7437      10
    7431    7428    7434      11    7431    7428    7437      11    7464    7458
    7467      10    7461    7458    7464      11    7461    7458    7467      11
    7494    7488    7497      10    7491    7488    7494      11    7491    7488
    7497      11    7524    7518    7527      10    7521    7518    7524      11
    7521    7518    7527      11    7554    7548    7557      10    7551    7548
    7554      11    7551    7548    7557      11    7584    7578    7587      10
    7581    7578    7584      11    7581    7578    7587      11    7614    7608
    7617      10    7611    7608    7614      11    7611    7608    7617      11
    7644    7638    7647      10    7641    7638    7644      11    7641    7638
    7647      11    7674    7668    7677      10    7671    7668    7674      11
    7671    7668    7677      11    7704    7698    7707      10    7701    7698
    7704      11    7701    7698    7707      11    7734    7728    7737      10
    7731    7728    7734      11    7731    7728    7737      11    7764    7758
    7767      10    7761    7758    7764      11    7761    7758    7767      11
    7794    7788    7797      10    7791    7788    7794      11    7791    7788
    7797      11    7824    7818    7827      10    7821    7818    7824      11
    7821    7818    7827      11    7854    7848    7857      10    7851    7848
    7854      11    7851    7848    7857      11    7884    7878    7887      10
    7881    7878    7884      11    7881    7878    7887      11    7914    7908
    7917      10    7911    7908    7914      11    7911    7908    7917      11
    7944    7938    7947      10    7941    7938    7944      11    7941    7938
    7947      11    7974    7968    7977      10    7971    7968    7974      11
    7971    7968    7977      11    8004    7998    8007      10    8001    7998
    8004      11    8001    7998    8007      11    8034    8028    8037      10
    8031    8028    8034      11    8031    8028    8037      11    8064    8058
    8067      10    8061    8058    8064      11    8061    8058    8067      11
    8094    8088    8097      10    8091    8088    8094      11    8091    8088
    8097      11    8124    8118    8127      10    8121    8118    8124      11
    8121    8118    8127      11    8154    8148    8157      10    8151    8148
    8154      11    8151    8148    8157      11    8184    8178    8187      10
    8181    8178    8184      11    8181    8178    8187      11    8214    8208
    8217      10    8211    8208    8214      11    8211    8208    8217      11
    8244    8238    8247      10    8241    8238    8244      11    8241    8238
    8247      11    8274    8268    8277      10    8271    8268    8274      11
    8271    8268    8277      11    8304    8298    8307      10    8301    8298
    8304      11    8301    8298    8307      11    8334    8328    8337      10
    8331    8328    8334      11    8331    8328    8337      11    8364    8358
    8367      10    8361    8358    8364      11    8361    8358    8367      11
    8394    8388    8397      10    8391    8388    8394      11    8391    8388
    8397      11    8424    8418    8427      10    8421    8418    8424      11
    8421    8418    8427      11    8454    8448    8457      10    8451    8448
    8454      11    8451    8448    8457      11    8484    8478    8487      10
    8481    8478    8484      11    8481    8478    8487      11    8514    8508
    8517      10    8511    8508    8514      11    8511    8508    8517      11
    8544    8538    8547      10    8541    8538    8544      11    8541    8538
    8547      11    8574    8568    8577      10    8571    8568    8574      11
    8571    8568    8577      11    8604    8598    8607      10    8601    8598
    8604      11    8601    8598    8607      11    8634    8628    8637      10
    8631    8628    8634      11    8631    8628    8637      11    8664    8658
    8667      10    8661    8658    8664      11    8661    8658    8667      11
    8694    8688    8697      10    8691    8688    8694      11    8691    8688
    8697      11    8724    8718    8727      10    8721    8718    8724      11
    8721    8718    8727      11    8754    8748    8757      10    8751    8748
    8754      11    8751    8748    8757      11    8784    8778    8787      10
    8781    8778    8784      11    8781    8778    8787      11    8814    8808
    8817      10    8811    8808    8814      11    8811    8808    8817      11
    8844    8838    8847      10    8841    8838    8844      11    8841    8838
    8847      11    8874    8868    8877      10    8871    8868    8874      11
    8871    8868    8877      11    8904    8898    8907      10    8901    8898
    8904      11    8901    8898    8907      11    8934    8928    8937      10
    8931    8928    8934      11    8931    8928    8937      11    8964    8958
    8967      10    8961    8958    8964      11    8961    8958    8967      11
    8994    8988    8997      10    8991    8988    8994      11    8991    8988
    8997      11    9024    9018    9027      10    9021    9018    9024      11
    9021    9018    9027      11    9054    9048    9057      10    9051    9048
    9054      11    9051    9048    9057      11    9084    9078    9087      10
    9081    9078    9084      11    9081    9078    9087      11    9114    9108
    9117      10    9111    9108    9114      11    9111    9108    9117      11
    9144    9138    9147      10    9141    9138    9144      11    9141    9138
    9147      11    9174    9168    9177      10    9171    9168    9174      11
    9171    9168    9177      11    9204    9198    9207      10    9201    9198
    9204      11    9201    9198    9207      11    9234    9228    9237      10
    9231    9228    9234      11    9231    9228    9237      11    9264    9258
    9267      10    9261    9258    9264      11    9261    9258    9267      11
    9294    9288    9297      10    9291    9288    9294      11    9291    9288
    9297      11    9324    9318    9327      10    9321    9318    9324      11
    9321    9318    9327      11    9354    9348    9357      10    9351    9348
    9354      11    9351    9348    9357      11    9384    9378    9387      10
    9381    9378    9384      11    9381    9378    9387      11    9414    9408
    9417      10    9411    9408    9414      11    9411    9408    9417      11
    9444    9438    9447      10    9441    9438    9444      11    9441    9438
    9447      11    9474    9468    9477      10    9471    9468    9474      11
    9471    9468    9477      11    9504    9498    9507      10    9501    9498
    9504      11    9501    9498    9507      11    9534    9528    9537      10
    9531    9528    9534      11    9531    9528    9537      11    9564    9558
    9567      10    9561    9558    9564      11    9561    9558    9567      11
    9594    9588    9597      10    9591    9588    9594      11    9591    9588
    9597      11    9624    9618    9627      10    9621    9618    9624      11
    9621    9618    9627      11    9654    9648    9657      10    9651    9648
    9654      11    9651    9648    9657      11    9684    9678    9687      10
    9681    9678    9684      11    9681    9678    9687      11    9714    9708
    9717      10    9711    9708    9714      11    9711    9708    9717      11
    9744    9738    9747      10    9741    9738    9744      11    9741    9738
    9747      11    9774    9768    9777      10    9771    9768    9774      11
    9771    9768    9777      11    9804    9798    9807      10    9801    9798
    9804      11    9801    9798    9807      11    9834    9828    9837      10
    9831    9828    9834      11    9831    9828    9837      11    9864    9858
    9867      10    9861    9858    9864      11    9861    9858    9867      11
    9894    9888    9897      10    9891    9888    9894      11    9891    9888
    9897      11    9924    9918    9927      10    9921    9918    9924      11
    9921    9918    9927      11    9954    9948    9957      10    9951    9948
    9954      11    9951    9948    9957      11    9984    9978    9987      10
    9981    9978    9984      11    9981    9978    9987      11   10014   10008
   10017      10   10011   10008   10014      11   10011   10008   10017      11
   10044   10038   10047      10   10041   10038   10044      11   10041   10038
   10047      11   10074   10068   10077      10   10071   10068   10074      11
   10071   10068   10077      11   10104   10098   10107      10   10101   10098
   10104      11   10101   10098   10107      11   10134   10128   10137      10
   10131   10128   10134      11   10131   10128   10137      11   10164   10158
   10167      10   10161   10158   10164      11   10161   10158   10167      11
   10194   10188   10197      10   10191   10188   10194      11   10191   10188
   10197      11   10224   10218   10227      10   10221   10218   10224      11
   10221   10218   10227      11   10254   10248   10257      10   10251   10248
   10254      11   10251   10248   10257      11   10284   10278   10287      10
   10281   10278   10284      11   10281   10278   10287      11
%FLAG DIHEDRALS_INC_HYDROGEN                                                    
%FORMAT(10I8)                                                                   
      99      63      69     105       1      96      60      66     102       1
      93      57      69     105       1      90      54      66     102       1
      87      51      63      99       1      84      48      60      96       1
      69      63      51      87       1      66      60      48      84       1
      63      69      57      93       1      60      66      54      90       1
      57      39       9      81       2      57      69      63      99       1
      54      36       6      78       2      54      66      60      96       1
      51      63      69     105       1      48      60      66     102       1
      45      15      27      75       1      45      33      51      87       1
      42      12      24      72       1      42      30      48      84       1
      39      33      51      87       1      39      57      69     105       1
      36      30      48      84       1      36      54      66     102       1
      33      39       9      81       2      33      39      57      93       1
      33      51      63      99       1      30      36       6      78       2
      30      36      54      90       1      30      48      60      96       1
      27      18       6      78       2      24      21       9      81       2
      21      15      27      75       1      18      12      24      72       1
      15      21       9      81       2      15      21      24      72       1
      12      18       6      78       2      12      18      27      75       1
       9      21      24      72       1       9      39      57      93       1
       6      18      27      75       1       6      36      54      90       1
     117     108     114     120       5     117     108     114     123       5
     117     108     114     126       5     114     108     117     129       5
     114     108     117     132       5     114     108     117     135       5
     111     108     114     120       6     111     108     114     123       6
     111     108     114     126       6     111     108     117     129       6
     111     108     117     132       6     111     108     117     135       6
     147     138     144     150       5     147     138    -144     150       6
     147     138     144     153       5     147     138    -144     153       6
     147     138     144     156       5     147     138    -144     156       6
     144     138     147     159       5     144     138    -147     159       6
     144     138     147     162       5     144     138    -147     162       6
     144     138     147     165       5     144     138    -147     165       6
     141     138     144     150       6     141     138     144     153       6
     141     138     144     156       6     141     138     147     159       6
     141     138     147     162       6     141     138     147     165       6
     177     168     174     180       5     177     168    -174     180       6
     177     168     174     183       5     177     168    -174     183       6
     177     168     174     186       5     177     168    -174     186       6
     174     168     177     189       5     174     168    -177     189       6
     174     168     177     192       5     174     168    -177     192       6
     174     168     177     195       5     174     168    -177     195       6
     171     168     174     180       6     171     168     174     183       6
     171     168     174     186       6     171     168     177     189       6
     171     168     177     192       6     171     168     177     195       6
     207     198     204     210       5     207     198    -204     210       6
     207     198     204     213       5     207     198    -204     213       6
     207     198     204     216       5     207     198    -204     216       6
     204     198     207     219       5     204     198    -207     219       6
     204     198     207     222       5     204     198    -207     222       6
     204     198     207     225       5     204     198    -207     225       6
     201     198     204     210       6     201     198     204     213       6
     201     198     204     216       6     201     198     207     219       6
     201     198     207     222       6     201     198     207     225       6
     237     228     234     240       5     237     228    -234     240       6
     237     228     234     243       5     237     228    -234     243       6
     237     228     234     246       5     237     228    -234     246       6
     234     228     237     249       5     234     228    -237     249       6
     234     228     237     252       5     234     228    -237     252       6
     234     228     237     255       5     234     228    -237     255       6
     231     228     234     240       6     231     228     234     243       6
     231     228     234     246       6     231     228     237     249       6
     231     228     237     252       6     231     228     237     255       6
     267     258     264     270       5     267     258    -264     270       6
     267     258     264     273       5     267     258    -264     273       6
     267     258     264     276       5     267     258    -264     276       6
     264     258     267     279       5     264     258    -267     279       6
     264     258     267     282       5     264     258    -267     282       6
     264     258     267     285       5     264     258    -267     285       6
     261     258     264     270       6     261     258     264     273       6
     261     258     264     276       6     261     258     267     279       6
     261     258     267     282       6     261     258     267     285       6
     297     288     294     300       5     297     288    -294     300       6
     297     288     294     303       5     297     288    -294     303       6
     297     288     294     306       5     297     288    -294     306       6
     294     288     297     309       5     294     288    -297     309       6
     294     288     297     312       5     294     288    -297     312       6
     294     288     297     315       5     294     288    -297     315       6
     291     288     294     300       6     291     288     294     303       6
     291     288     294     306       6     291     288     297     309       6
     291     288     297     312       6     291     288     297     315       6
     327     318     324     330       5     327     318    -324     330       6
     327     318     324     333       5     327     318    -324     333       6
     327     318     324     336       5     327     318    -324     336       6
     324     318     327     339       5     324     318    -327     339       6
     324     318     327     342       5     324     318    -327     342       6
     324     318     327     345       5     324     318    -327     345       6
     321     318     324     330       6     321     318     324     333       6
     321     318     324     336       6     321     318     327     339       6
     321     318     327     342       6     321     318     327     345       6
     357     348     354     360       5     357     348    -354     360       6
     357     348     354     363       5     357     348    -354     363       6
     357     348     354     366       5     357     348    -354     366       6
     354     348     357     369       5     354     348    -357     369       6
     354     348     357     372       5     354     348    -357     372       6
     354     348     357     375       5     354     348    -357     375       6
     351     348     354     360       6     351     348     354     363       6
     351     348     354     366       6     351     348     357     369       6
     351     348     357     372       6     351     348     357     375       6
     387     378     384     390       5     387     378    -384     390       6
     387     378     384     393       5     387     378    -384     393       6
     387     378     384     396       5     387     378    -384     396       6
     384     378     387     399       5     384     378    -387     399       6
     384     378     387     402       5     384     378    -387     402       6
     384     378     387     405       5     384     378    -387     405       6
     381     378     384     390       6     381     378     384     393       6
     381     378     384     396       6     381     378     387     399       6
     381     378     387     402       6     381     378     387     405       6
     417     408     414     420       5     417     408    -414     420       6
     417     408     414     423       5     417     408    -414     423       6
     417     408     414     426       5     417     408    -414     426       6
     414     408     417     429       5     414     408    -417     429       6
     414     408     417     432       5     414     408    -417     432       6
     414     408     417     435       5     414     408    -417     435       6
     411     408     414     420       6     411     408     414     423       6
     411     408     414     426       6     411     408     417     429       6
     411     408     417     432       6     411     408     417     435       6
     447     438     444     450       5     447     438    -444     450       6
     447     438     444     453       5     447     438    -444     453       6
     447     438     444     456       5     447     438    -444     456       6
     444     438     447     459       5     444     438    -447     459       6
     444     438     447     462       5     444     438    -447     462       6
     444     438     447     465       5     444     438    -447     465       6
     441     438     444     450       6     441     438     444     453       6
     441     438     444     456       6     441     438     447     459       6
     441     438     447     462       6     441     438     447     465       6
     477     468     474     480       5     477     468    -474     480       6
     477     468     474     483       5     477     468    -474     483       6
     477     468     474     486       5     477     468    -474     486       6
     474     468     477     489       5     474     468    -477     489       6
     474     468     477     492       5     474     468    -477     492       6
     474     468     477     495       5     474     468    -477     495       6
     471     468     474     480       6     471     468     474     483       6
     471     468     474     486       6     471     468     477     489       6
     471     468     477     492       6     471     468     477     495       6
     507     498     504     510       5     507     498    -504     510       6
     507     498     504     513       5     507     498    -504     513       6
     507     498     504     516       5     507     498    -504     516       6
     504     498     507     519       5     504     498    -507     519       6
     504     498     507     522       5     504     498    -507     522       6
     504     498     507     525       5     504     498    -507     525       6
     501     498     504     510       6     501     498     504     513       6
     501     498     504     516       6     501     498     507     519       6
     501     498     507     522       6     501     498     507     525       6
     537     528     534     540       5     537     528    -534     540       6
     537     528     534     543       5     537     528    -534     543       6
     537     528     534     546       5     537     528    -534     546       6
     534     528     537     549       5     534     528    -537     549       6
     534     528     537     552       5     534     528    -537     552       6
     534     528     537     555       5     534     528    -537     555       6
     531     528     534     540       6     531     528     534     543       6
     531     528     534     546       6     531     528     537     549       6
     531     528     537     552       6     531     528     537     555       6
     567     558     564     570       5     567     558    -564     570       6
     567     558     564     573       5     567     558    -564     573       6
     567     558     564     576       5     567     558    -564     576       6
     564     558     567     579       5     564     558    -567     579       6
     564     558     567     582       5     564     558    -567     582       6
     564     558     567     585       5     564     558    -567     585       6
     561     558     564     570       6     561     558     564     573       6
     561     558     564     576       6     561     558     567     579       6
     561     558     567     582       6     561     558     567     585       6
     597     588     594     600       5     597     588    -594     600       6
     597     588     594     603       5     597     588    -594     603       6
     597     588     594     606       5     597     588    -594     606       6
     594     588     597     609       5     594     588    -597     609       6
     594     588     597     612       5     594     588    -597     612       6
     594     588     597     615       5     594     588    -597     615       6
     591     588     594     600       6     591     588     594     603       6
     591     588     594     606       6     591     588     597     609       6
     591     588     597     612       6     591     588     597     615       6
     627     618     624     630       5     627     618    -624     630       6
     627     618     624     633       5     627     618    -624     633       6
     627     618     624     636       5     627     618    -624     636       6
     624     618     627     639       5     624     618    -627     639       6
     624     618     627     642       5     624     618    -627     642       6
     624     618     627     645       5     624     618    -627     645       6
     621     618     624     630       6     621     618     624     633       6
     621     618     624     636       6     621     618     627     639       6
     621     618     627     642       6     621     618     627     645       6
     657     648     654     660       5     657     648    -654     660       6
     657     648     654     663       5     657     648    -654     663       6
     657     648     654     666       5     657     648    -654     666       6
     654     648     657     669       5     654     648    -657     669       6
     654     648     657     672       5     654     648    -657     672       6
     654     648     657     675       5     654     648    -657     675       6
     651     648     654     660       6     651     648     654     663       6
     651     648     654     666       6     651     648     657     669       6
     651     648     657     672       6     651     648     657     675       6
     687     678     684     690       5     687     678    -684     690       6
     687     678     684     693       5     687     678    -684     693       6
     687     678     684     696       5     687     678    -684     696       6
     684     678     687     699       5     684     678    -687     699       6
     684     678     687     702       5     684     678    -687     702       6
     684     678     687     705       5     684     678    -687     705       6
     681     678     684     690       6     681     678     684     693       6
     681     678     684     696       6     681     678     687     699       6
     681     678     687     702       6     681     678     687     705       6
     717     708     714     720       5     717     708    -714     720       6
     717     708     714     723       5     717     708    -714     723       6
     717     708     714     726       5     717     708    -714     726       6
     714     708     717     729       5     714     708    -717     729       6
     714     708     717     732       5     714     708    -717     732       6
     714     708     717     735       5     714     708    -717     735       6
     711     708     714     720       6     711     708     714     723       6
     711     708     714     726       6     711     708     717     729       6
     711     708     717     732       6     711     708     717     735       6
     747     738     744     750       5     747     738    -744     750       6
     747     738     744     753       5     747     738    -744     753       6
     747     738     744     756       5     747     738    -744     756       6
     744     738     747     759       5     744     738    -747     759       6
     744     738     747     762       5     744     738    -747     762       6
     744     738     747     765       5     744     738    -747     765       6
     741     738     744     750       6     741     738     744     753       6
     741     738     744     756       6     741     738     747     759       6
     741     738     747     762       6     741     738     747     765       6
     777     768     774     780       5     777     768    -774     780       6
     777     768     774     783       5     777     768    -774     783       6
     777     768     774     786       5     777     768    -774     786       6
     774     768     777     789       5     774     768    -777     789       6
     774     768     777     792       5     774     768    -777     792       6
     774     768     777     795       5     774     768    -777     795       6
     771     768     774     780       6     771     768     774     783       6
     771     768     774     786       6     771     768     777     789       6
     771     768     777     792       6     771     768     777     795       6
     807     798     804     810       5     807     798    -804     810       6
     807     798     804     813       5     807     798    -804     813       6
     807     798     804     816       5     807     798    -804     816       6
     804     798     807     819       5     804     798    -807     819       6
     804     798     807     822       5     804     798    -807     822       6
     804     798     807     825       5     804     798    -807     825       6
     801     798     804     810       6     801     798     804     813       6
     801     798     804     816       6     801     798     807     819       6
     801     798     807     822       6     801     798     807     825       6
     837     828     834     840       5     837     828    -834     840       6
     837     828     834     843       5     837     828    -834     843       6
     837     828     834     846       5     837     828    -834     846       6
     834     828     837     849       5     834     828    -837     849       6
     834     828     837     852       5     834     828    -837     852       6
     834     828     837     855       5     834     828    -837     855       6
     831     828     834     840       6     831     828     834     843       6
     831     828     834     846       6     831     828     837     849       6
     831     828     837     852       6     831     828     837     855       6
     867     858     864     870       5     867     858    -864     870       6
     867     858     864     873       5     867     858    -864     873       6
     867     858     864     876       5     867     858    -864     876       6
     864     858     867     879       5     864     858    -867     879       6
     864     858     867     882       5     864     858    -867     882       6
     864     858     867     885       5     864     858    -867     885       6
     861     858     864     870       6     861     858     864     873       6
     861     858     864     876       6     861     858     867     879       6
     861     858     867     882       6     861     858     867     885       6
     897     888     894     900       5     897     888    -894     900       6
     897     888     894     903       5     897     888    -894     903       6
     897     888     894     906       5     897     888    -894     906       6
     894     888     897     909       5     894     888    -897     909       6
     894     888     897     912       5     894     888    -897     912       6
     894     888     897     915       5     894     888    -897     915       6
     891     888     894     900       6     891     888     894     903       6
     891     888     894     906       6     891     888     897     909       6
     891     888     897     912       6     891     888     897     915       6
     927     918     924     930       5     927     918    -924     930       6
     927     918     924     933       5     927     918    -924     933       6
     927     918     924     936       5     927     918    -924     936       6
     924     918     927     939       5     924     918    -927     939       6
     924     918     927     942       5     924     918    -927     942       6
     924     918     927     945       5     924     918    -927     945       6
     921     918     924     930       6     921     918     924     933       6
     921     918     924     936       6     921     918     927     939       6
     921     918     927     942       6     921     918     927     945       6
     957     948     954     960       5     957     948    -954     960       6
     957     948     954     963       5     957     948    -954     963       6
     957     948     954     966       5     957     948    -954     966       6
     954     948     957     969       5     954     948    -957     969       6
     954     948     957     972       5     954     948    -957     972       6
     954     948     957     975       5     954     948    -957     975       6
     951     948     954     960       6     951     948     954     963       6
     951     948     954     966       6     951     948     957     969       6
     951     948     957     972       6     951     948     957     975       6
     987     978     984     990       5     987     978    -984     990       6
     987     978     984     993       5     987     978    -984     993       6
     987     978     984     996       5     987     978    -984     996       6
     984     978     987     999       5     984     978    -987     999       6
     984     978     987    1002       5     984     978    -987    1002       6
     984     978     987    1005       5     984     978    -987    1005       6
     981     978     984     990       6     981     978     984     993       6
     981     978     984     996       6     981     978     987     999       6
     981     978     987    1002       6     981     978     987    1005       6
    1017    1008    1014    1020       5    1017    1008   -1014    1020       6
    1017    1008    1014    1023       5    1017    1008   -1014    1023       6
    1017    1008    1014    1026       5    1017    1008   -1014    1026       6
    1014    1008    1017    1029       5    1014    1008   -1017    1029       6
    1014    1008    1017    1032       5    1014    1008   -1017    1032       6
    1014    1008    1017    1035       5    1014    1008   -1017    1035       6
    1011    1008    1014    1020       6    1011    1008    1014    1023       6
    1011    1008    1014    1026       6    1011    1008    1017    1029       6
    1011    1008    1017    1032       6    1011    1008    1017    1035       6
    1047    1038    1044    1050       5    1047    1038   -1044    1050       6
    1047    1038    1044    1053       5    1047    1038   -1044    1053       6
    1047    1038    1044    1056       5    1047    1038   -1044    1056       6
    1044    1038    1047    1059       5    1044    1038   -1047    1059       6
    1044    1038    1047    1062       5    1044    1038   -1047    1062       6
    1044    1038    1047    1065       5    1044    1038   -1047    1065       6
    1041    1038    1044    1050       6    1041    1038    1044    1053       6
    1041    1038    1044    1056       6    1041    1038    1047    1059       6
    1041    1038    1047    1062       6    1041    1038    1047    1065       6
    1077    1068    1074    1080       5    1077    1068   -1074    1080       6
    1077    1068    1074    1083       5    1077    1068   -1074    1083       6
    1077    1068    1074    1086       5    1077    1068   -1074    1086       6
    1074    1068    1077    1089       5    1074    1068   -1077    1089       6
    1074    1068    1077    1092       5    1074    1068   -1077    1092       6
    1074    1068    1077    1095       5    1074    1068   -1077    1095       6
    1071    1068    1074    1080       6    1071    1068    1074    1083       6
    1071    1068    1074    1086       6    1071    1068    1077    1089       6
    1071    1068    1077    1092       6    1071    1068    1077    1095       6
    1107    1098    1104    1110       5    1107    1098   -1104    1110       6
    1107    1098    1104    1113       5    1107    1098   -1104    1113       6
    1107    1098    1104    1116       5    1107    1098   -1104    1116       6
    1104    1098    1107    1119       5    1104    1098   -1107    1119       6
    1104    1098    1107    1122       5    1104    1098   -1107    1122       6
    1104    1098    1107    1125       5    1104    1098   -1107    1125       6
    1101    1098    1104    1110       6    1101    1098    1104    1113       6
    1101    1098    1104    1116       6    1101    1098    1107    1119       6
    1101    1098    1107    1122       6    1101    1098    1107    1125       6
    1137    1128    1134    1140       5    1137    1128   -1134    1140       6
    1137    1128    1134    1143       5    1137    1128   -1134    1143       6
    1137    1128    1134    1146       5    1137    1128   -1134    1146       6
    1134    1128    1137    1149       5    1134    1128   -1137    1149       6
    1134    1128    1137    1152       5    1134    1128   -1137    1152       6
    1134    1128    1137    1155       5    1134    1128   -1137    1155       6
    1131    1128    1134    1140       6    1131    1128    1134    1143       6
    1131    1128    1134    1146       6    1131    1128    1137    1149       6
    1131    1128    1137    1152       6    1131    1128    1137    1155       6
    1167    1158    1164    1170       5    1167    1158   -1164    1170       6
    1167    1158    1164    1173       5    1167    1158   -1164    1173       6
    1167    1158    1164    1176       5    1167    1158   -1164    1176       6
    1164    1158    1167    1179       5    1164    1158   -1167    1179       6
    1164    1158    1167    1182       5    1164    1158   -1167    1182       6
    1164    1158    1167    1185       5    1164    1158   -1167    1185       6
    1161    1158    1164    1170       6    1161    1158    1164    1173       6
    1161    1158    1164    1176       6    1161    1158    1167    1179       6
    1161    1158    1167    1182       6    1161    1158    1167    1185       6
    1197    1188    1194    1200       5    1197    1188   -1194    1200       6
    1197    1188    1194    1203       5    1197    1188   -1194    1203       6
    1197    1188    1194    1206       5    1197    1188   -1194    1206       6
    1194    1188    1197    1209       5    1194    1188   -1197    1209       6
    1194    1188    1197    1212       5    1194    1188   -1197    1212       6
    1194    1188    1197    1215       5    1194    1188   -1197    1215       6
    1191    1188    1194    1200       6    1191    1188    1194    1203       6
    1191    1188    1194    1206       6    1191    1188    1197    1209       6
    1191    1188    1197    1212       6    1191    1188    1197    1215       6
    1227    1218    1224    1230       5    1227    1218   -1224    1230       6
    1227    1218    1224    1233       5    1227    1218   -1224    1233       6
    1227    1218    1224    1236       5    1227    1218   -1224    1236       6
    1224    1218    1227    1239       5    1224    1218   -1227    1239       6
    1224    1218    1227    1242       5    1224    1218   -1227    1242       6
    1224    1218    1227    1245       5    1224    1218   -1227    1245       6
    1221    1218    1224    1230       6    1221    1218    1224    1233       6
    1221    1218    1224    1236       6    1221    1218    1227    1239       6
    1221    1218    1227    1242       6    1221    1218    1227    1245       6
    1257    1248    1254    1260       5    1257    1248   -1254    1260       6
    1257    1248    1254    1263       5    1257    1248   -1254    1263       6
    1257    1248    1254    1266       5    1257    1248   -1254    1266       6
    1254    1248    1257    1269       5    1254    1248   -1257    1269       6
    1254    1248    1257    1272       5    1254    1248   -1257    1272       6
    1254    1248    1257    1275       5    1254    1248   -1257    1275       6
    1251    1248    1254    1260       6    1251    1248    1254    1263       6
    1251    1248    1254    1266       6    1251    1248    1257    1269       6
    1251    1248    1257    1272       6    1251    1248    1257    1275       6
    1287    1278    1284    1290       5    1287    1278   -1284    1290       6
    1287    1278    1284    1293       5    1287    1278   -1284    1293       6
    1287    1278    1284    1296       5    1287    1278   -1284    1296       6
    1284    1278    1287    1299       5    1284    1278   -1287    1299       6
    1284    1278    1287    1302       5    1284    1278   -1287    1302       6
    1284    1278    1287    1305       5    1284    1278   -1287    1305       6
    1281    1278    1284    1290       6    1281    1278    1284    1293       6
    1281    1278    1284    1296       6    1281    1278    1287    1299       6
    1281    1278    1287    1302       6    1281    1278    1287    1305       6
    1317    1308    1314    1320       5    1317    1308   -1314    1320       6
    1317    1308    1314    1323       5    1317    1308   -1314    1323       6
    1317    1308    1314    1326       5    1317    1308   -1314    1326       6
    1314    1308    1317    1329       5    1314    1308   -1317    1329       6
    1314    1308    1317    1332       5    1314    1308   -1317    1332       6
    1314    1308    1317    1335       5    1314    1308   -1317    1335       6
    1311    1308    1314    1320       6    1311    1308    1314    1323       6
    1311    1308    1314    1326       6    1311    1308    1317    1329       6
    1311    1308    1317    1332       6    1311    1308    1317    1335       6
    1347    1338    1344    1350       5    1347    1338   -1344    1350       6
    1347    1338    1344    1353       5    1347    1338   -1344    1353       6
    1347    1338    1344    1356       5    1347    1338   -1344    1356       6
    1344    1338    1347    1359       5    1344    1338   -1347    1359       6
    1344    1338    1347    1362       5    1344    1338   -1347    1362       6
    1344    1338    1347    1365       5    1344    1338   -1347    1365       6
    1341    1338    1344    1350       6    1341    1338    1344    1353       6
    1341    1338    1344    1356       6    1341    1338    1347    1359       6
    1341    1338    1347    1362       6    1341    1338    1347    1365       6
    1377    1368    1374    1380       5    1377    1368   -1374    1380       6
    1377    1368    1374    1383       5    1377    1368   -1374    1383       6
    1377    1368    1374    1386       5    1377    1368   -1374    1386       6
    1374    1368    1377    1389       5    1374    1368   -1377    1389       6
    1374    1368    1377    1392       5    1374    1368   -1377    1392       6
    1374    1368    1377    1395       5    1374    1368   -1377    1395       6
    1371    1368    1374    1380       6    1371    1368    1374    1383       6
    1371    1368    1374    1386       6    1371    1368    1377    1389       6
    1371    1368    1377    1392       6    1371    1368    1377    1395       6
    1407    1398    1404    1410       5    1407    1398   -1404    1410       6
    1407    1398    1404    1413       5    1407    1398   -1404    1413       6
    1407    1398    1404    1416       5    1407    1398   -1404    1416       6
    1404    1398    1407    1419       5    1404    1398   -1407    1419       6
    1404    1398    1407    1422       5    1404    1398   -1407    1422       6
    1404    1398    1407    1425       5    1404    1398   -1407    1425       6
    1401    1398    1404    1410       6    1401    1398    1404    1413       6
    1401    1398    1404    1416       6    1401    1398    1407    1419       6
    1401    1398    1407    1422       6    1401    1398    1407    1425       6
    1437    1428    1434    1440       5    1437    1428   -1434    1440       6
    1437    1428    1434    1443       5    1437    1428   -1434    1443       6
    1437    1428    1434    1446       5    1437    1428   -1434    1446       6
    1434    1428    1437    1449       5    1434    1428   -1437    1449       6
    1434    1428    1437    1452       5    1434    1428   -1437    1452       6
    1434    1428    1437    1455       5    1434    1428   -1437    1455       6
    1431    1428    1434    1440       6    1431    1428    1434    1443       6
    1431    1428    1434    1446       6    1431    1428    1437    1449       6
    1431    1428    1437    1452       6    1431    1428    1437    1455       6
    1467    1458    1464    1470       5    1467    1458   -1464    1470       6
    1467    1458    1464    1473       5    1467    1458   -1464    1473       6
    1467    1458    1464    1476       5    1467    1458   -1464    1476       6
    1464    1458    1467    1479       5    1464    1458   -1467    1479       6
    1464    1458    1467    1482       5    1464    1458   -1467    1482       6
    1464    1458    1467    1485       5    1464    1458   -1467    1485       6
    1461    1458    1464    1470       6    1461    1458    1464    1473       6
    1461    1458    1464    1476       6    1461    1458    1467    1479       6
    1461    1458    1467    1482       6    1461    1458    1467    1485       6
    1497    1488    1494    1500       5    1497    1488   -1494    1500       6
    1497    1488    1494    1503       5    1497    1488   -1494    1503       6
    1497    1488    1494    1506       5    1497    1488   -1494    1506       6
    1494    1488    1497    1509       5    1494    1488   -1497    1509       6
    1494    1488    1497    1512       5    1494    1488   -1497    1512       6
    1494    1488    1497    1515       5    1494    1488   -1497    1515       6
    1491    1488    1494    1500       6    1491    1488    1494    1503       6
    1491    1488    1494    1506       6    1491    1488    1497    1509       6
    1491    1488    1497    1512       6    1491    1488    1497    1515       6
    1527    1518    1524    1530       5    1527    1518   -1524    1530       6
    1527    1518    1524    1533       5    1527    1518   -1524    1533       6
    1527    1518    1524    1536       5    1527    1518   -1524    1536       6
    1524    1518    1527    1539       5    1524    1518   -1527    1539       6
    1524    1518    1527    1542       5    1524    1518   -1527    1542       6
    1524    1518    1527    1545       5    1524    1518   -1527    1545       6
    1521    1518    1524    1530       6    1521    1518    1524    1533       6
    1521    1518    1524    1536       6    1521    1518    1527    1539       6
    1521    1518    1527    1542       6    1521    1518    1527    1545       6
    1557    1548    1554    1560       5    1557    1548   -1554    1560       6
    1557    1548    1554    1563       5    1557    1548   -1554    1563       6
    1557    1548    1554    1566       5    1557    1548   -1554    1566       6
    1554    1548    1557    1569       5    1554    1548   -1557    1569       6
    1554    1548    1557    1572       5    1554    1548   -1557    1572       6
    1554    1548    1557    1575       5    1554    1548   -1557    1575       6
    1551    1548    1554    1560       6    1551    1548    1554    1563       6
    1551    1548    1554    1566       6    1551    1548    1557    1569       6
    1551    1548    1557    1572       6    1551    1548    1557    1575       6
    1587    1578    1584    1590       5    1587    1578   -1584    1590       6
    1587    1578    1584    1593       5    1587    1578   -1584    1593       6
    1587    1578    1584    1596       5    1587    1578   -1584    1596       6
    1584    1578    1587    1599       5    1584    1578   -1587    1599       6
    1584    1578    1587    1602       5    1584    1578   -1587    1602       6
    1584    1578    1587    1605       5    1584    1578   -1587    1605       6
    1581    1578    1584    1590       6    1581    1578    1584    1593       6
    1581    1578    1584    1596       6    1581    1578    1587    1599       6
    1581    1578    1587    1602       6    1581    1578    1587    1605       6
    1617    1608    1614    1620       5    1617    1608   -1614    1620       6
    1617    1608    1614    1623       5    1617    1608   -1614    1623       6
    1617    1608    1614    1626       5    1617    1608   -1614    1626       6
    1614    1608    1617    1629       5    1614    1608   -1617    1629       6
    1614    1608    1617    1632       5    1614    1608   -1617    1632       6
    1614    1608    1617    1635       5    1614    1608   -1617    1635       6
    1611    1608    1614    1620       6    1611    1608    1614    1623       6
    1611    1608    1614    1626       6    1611    1608    1617    1629       6
    1611    1608    1617    1632       6    1611    1608    1617    1635       6
    1647    1638    1644    1650       5    1647    1638   -1644    1650       6
    1647    1638    1644    1653       5    1647    1638   -1644    1653       6
    1647    1638    1644    1656       5    1647    1638   -1644    1656       6
    1644    1638    1647    1659       5    1644    1638   -1647    1659       6
    1644    1638    1647    1662       5    1644    1638   -1647    1662       6
    1644    1638    1647    1665       5    1644    1638   -1647    1665       6
    1641    1638    1644    1650       6    1641    1638    1644    1653       6
    1641    1638    1644    1656       6    1641    1638    1647    1659       6
    1641    1638    1647    1662       6    1641    1638    1647    1665       6
    1677    1668    1674    1680       5    1677    1668   -1674    1680       6
    1677    1668    1674    1683       5    1677    1668   -1674    1683       6
    1677    1668    1674    1686       5    1677    1668   -1674    1686       6
    1674    1668    1677    1689       5    1674    1668   -1677    1689       6
    1674    1668    1677    1692       5    1674    1668   -1677    1692       6
    1674    1668    1677    1695       5    1674    1668   -1677    1695       6
    1671    1668    1674    1680       6    1671    1668    1674    1683       6
    1671    1668    1674    1686       6    1671    1668    1677    1689       6
    1671    1668    1677    1692       6    1671    1668    1677    1695       6
    1707    1698    1704    1710       5    1707    1698   -1704    1710       6
    1707    1698    1704    1713       5    1707    1698   -1704    1713       6
    1707    1698    1704    1716       5    1707    1698   -1704    1716       6
    1704    1698    1707    1719       5    1704    1698   -1707    1719       6
    1704    1698    1707    1722       5    1704    1698   -1707    1722       6
    1704    1698    1707    1725       5    1704    1698   -1707    1725       6
    1701    1698    1704    1710       6    1701    1698    1704    1713       6
    1701    1698    1704    1716       6    1701    1698    1707    1719       6
    1701    1698    1707    1722       6    1701    1698    1707    1725       6
    1737    1728    1734    1740       5    1737    1728   -1734    1740       6
    1737    1728    1734    1743       5    1737    1728   -1734    1743       6
    1737    1728    1734    1746       5    1737    1728   -1734    1746       6
    1734    1728    1737    1749       5    1734    1728   -1737    1749       6
    1734    1728    1737    1752       5    1734    1728   -1737    1752       6
    1734    1728    1737    1755       5    1734    1728   -1737    1755       6
    1731    1728    1734    1740       6    1731    1728    1734    1743       6
    1731    1728    1734    1746       6    1731    1728    1737    1749       6
    1731    1728    1737    1752       6    1731    1728    1737    1755       6
    1767    1758    1764    1770       5    1767    1758   -1764    1770       6
    1767    1758    1764    1773       5    1767    1758   -1764    1773       6
    1767    1758    1764    1776       5    1767    1758   -1764    1776       6
    1764    1758    1767    1779       5    1764    1758   -1767    1779       6
    1764    1758    1767    1782       5    1764    1758   -1767    1782       6
    1764    1758    1767    1785       5    1764    1758   -1767    1785       6
    1761    1758    1764    1770       6    1761    1758    1764    1773       6
    1761    1758    1764    1776       6    1761    1758    1767    1779       6
    1761    1758    1767    1782       6    1761    1758    1767    1785       6
    1797    1788    1794    1800       5    1797    1788   -1794    1800       6
    1797    1788    1794    1803       5    1797    1788   -1794    1803       6
    1797    1788    1794    1806       5    1797    1788   -1794    1806       6
    1794    1788    1797    1809       5    1794    1788   -1797    1809       6
    1794    1788    1797    1812       5    1794    1788   -1797    1812       6
    1794    1788    1797    1815       5    1794    1788   -1797    1815       6
    1791    1788    1794    1800       6    1791    1788    1794    1803       6
    1791    1788    1794    1806       6    1791    1788    1797    1809       6
    1791    1788    1797    1812       6    1791    1788    1797    1815       6
    1827    1818    1824    1830       5    1827    1818   -1824    1830       6
    1827    1818    1824    1833       5    1827    1818   -1824    1833       6
    1827    1818    1824    1836       5    1827    1818   -1824    1836       6
    1824    1818    1827    1839       5    1824    1818   -1827    1839       6
    1824    1818    1827    1842       5    1824    1818   -1827    1842       6
    1824    1818    1827    1845       5    1824    1818   -1827    1845       6
    1821    1818    1824    1830       6    1821    1818    1824    1833       6
    1821    1818    1824    1836       6    1821    1818    1827    1839       6
    1821    1818    1827    1842       6    1821    1818    1827    1845       6
    1857    1848    1854    1860       5    1857    1848   -1854    1860       6
    1857    1848    1854    1863       5    1857    1848   -1854    1863       6
    1857    1848    1854    1866       5    1857    1848   -1854    1866       6
    1854    1848    1857    1869       5    1854    1848   -1857    1869       6
    1854    1848    1857    1872       5    1854    1848   -1857    1872       6
    1854    1848    1857    1875       5    1854    1848   -1857    1875       6
    1851    1848    1854    1860       6    1851    1848    1854    1863       6
    1851    1848    1854    1866       6    1851    1848    1857    1869       6
    1851    1848    1857    1872       6    1851    1848    1857    1875       6
    1887    1878    1884    1890       5    1887    1878   -1884    1890       6
    1887    1878    1884    1893       5    1887    1878   -1884    1893       6
    1887    1878    1884    1896       5    1887    1878   -1884    1896       6
    1884    1878    1887    1899       5    1884    1878   -1887    1899       6
    1884    1878    1887    1902       5    1884    1878   -1887    1902       6
    1884    1878    1887    1905       5    1884    1878   -1887    1905       6
    1881    1878    1884    1890       6    1881    1878    1884    1893       6
    1881    1878    1884    1896       6    1881    1878    1887    1899       6
    1881    1878    1887    1902       6    1881    1878    1887    1905       6
    1917    1908    1914    1920       5    1917    1908   -1914    1920       6
    1917    1908    1914    1923       5    1917    1908   -1914    1923       6
    1917    1908    1914    1926       5    1917    1908   -1914    1926       6
    1914    1908    1917    1929       5    1914    1908   -1917    1929       6
    1914    1908    1917    1932       5    1914    1908   -1917    1932       6
    1914    1908    1917    1935       5    1914    1908   -1917    1935       6
    1911    1908    1914    1920       6    1911    1908    1914    1923       6
    1911    1908    1914    1926       6    1911    1908    1917    1929       6
    1911    1908    1917    1932       6    1911    1908    1917    1935       6
    1947    1938    1944    1950       5    1947    1938   -1944    1950       6
    1947    1938    1944    1953       5    1947    1938   -1944    1953       6
    1947    1938    1944    1956       5    1947    1938   -1944    1956       6
    1944    1938    1947    1959       5    1944    1938   -1947    1959       6
    1944    1938    1947    1962       5    1944    1938   -1947    1962       6
    1944    1938    1947    1965       5    1944    1938   -1947    1965       6
    1941    1938    1944    1950       6    1941    1938    1944    1953       6
    1941    1938    1944    1956       6    1941    1938    1947    1959       6
    1941    1938    1947    1962       6    1941    1938    1947    1965       6
    1977    1968    1974    1980       5    1977    1968   -1974    1980       6
    1977    1968    1974    1983       5    1977    1968   -1974    1983       6
    1977    1968    1974    1986       5    1977    1968   -1974    1986       6
    1974    1968    1977    1989       5    1974    1968   -1977    1989       6
    1974    1968    1977    1992       5    1974    1968   -1977    1992       6
    1974    1968    1977    1995       5    1974    1968   -1977    1995       6
    1971    1968    1974    1980       6    1971    1968    1974    1983       6
    1971    1968    1974    1986       6    1971    1968    1977    1989       6
    1971    1968    1977    1992       6    1971    1968    1977    1995       6
    2007    1998    2004    2010       5    2007    1998   -2004    2010       6
    2007    1998    2004    2013       5    2007    1998   -2004    2013       6
    2007    1998    2004    2016       5    2007    1998   -2004    2016       6
    2004    1998    2007    2019       5    2004    1998   -2007    2019       6
    2004    1998    2007    2022       5    2004    1998   -2007    2022       6
    2004    1998    2007    2025       5    2004    1998   -2007    2025       6
    2001    1998    2004    2010       6    2001    1998    2004    2013       6
    2001    1998    2004    2016       6    2001    1998    2007    2019       6
    2001    1998    2007    2022       6    2001    1998    2007    2025       6
    2037    2028    2034    2040       5    2037    2028   -2034    2040       6
    2037    2028    2034    2043       5    2037    2028   -2034    2043       6
    2037    2028    2034    2046       5    2037    2028   -2034    2046       6
    2034    2028    2037    2049       5    2034    2028   -2037    2049       6
    2034    2028    2037    2052       5    2034    2028   -2037    2052       6
    2034    2028    2037    2055       5    2034    2028   -2037    2055       6
    2031    2028    2034    2040       6    2031    2028    2034    2043       6
    2031    2028    2034    2046       6    2031    2028    2037    2049       6
    2031    2028    2037    2052       6    2031    2028    2037    2055       6
    2067    2058    2064    2070       5    2067    2058   -2064    2070       6
    2067    2058    2064    2073       5    2067    2058   -2064    2073       6
    2067    2058    2064    2076       5    2067    2058   -2064    2076       6
    2064    2058    2067    2079       5    2064    2058   -2067    2079       6
    2064    2058    2067    2082       5    2064    2058   -2067    2082       6
    2064    2058    2067    2085       5    2064    2058   -2067    2085       6
    2061    2058    2064    2070       6    2061    2058    2064    2073       6
    2061    2058    2064    2076       6    2061    2058    2067    2079       6
    2061    2058    2067    2082       6    2061    2058    2067    2085       6
    2097    2088    2094    2100       5    2097    2088   -2094    2100       6
    2097    2088    2094    2103       5    2097    2088   -2094    2103       6
    2097    2088    2094    2106       5    2097    2088   -2094    2106       6
    2094    2088    2097    2109       5    2094    2088   -2097    2109       6
    2094    2088    2097    2112       5    2094    2088   -2097    2112       6
    2094    2088    2097    2115       5    2094    2088   -2097    2115       6
    2091    2088    2094    2100       6    2091    2088    2094    2103       6
    2091    2088    2094    2106       6    2091    2088    2097    2109       6
    2091    2088    2097    2112       6    2091    2088    2097    2115       6
    2127    2118    2124    2130       5    2127    2118   -2124    2130       6
    2127    2118    2124    2133       5    2127    2118   -2124    2133       6
    2127    2118    2124    2136       5    2127    2118   -2124    2136       6
    2124    2118    2127    2139       5    2124    2118   -2127    2139       6
    2124    2118    2127    2142       5    2124    2118   -2127    2142       6
    2124    2118    2127    2145       5    2124    2118   -2127    2145       6
    2121    2118    2124    2130       6    2121    2118    2124    2133       6
    2121    2118    2124    2136       6    2121    2118    2127    2139       6
    2121    2118    2127    2142       6    2121    2118    2127    2145       6
    2157    2148    2154    2160       5    2157    2148   -2154    2160       6
    2157    2148    2154    2163       5    2157    2148   -2154    2163       6
    2157    2148    2154    2166       5    2157    2148   -2154    2166       6
    2154    2148    2157    2169       5    2154    2148   -2157    2169       6
    2154    2148    2157    2172       5    2154    2148   -2157    2172       6
    2154    2148    2157    2175       5    2154    2148   -2157    2175       6
    2151    2148    2154    2160       6    2151    2148    2154    2163       6
    2151    2148    2154    2166       6    2151    2148    2157    2169       6
    2151    2148    2157    2172       6    2151    2148    2157    2175       6
    2187    2178    2184    2190       5    2187    2178   -2184    2190       6
    2187    2178    2184    2193       5    2187    2178   -2184    2193       6
    2187    2178    2184    2196       5    2187    2178   -2184    2196       6
    2184    2178    2187    2199       5    2184    2178   -2187    2199       6
    2184    2178    2187    2202       5    2184    2178   -2187    2202       6
    2184    2178    2187    2205       5    2184    2178   -2187    2205       6
    2181    2178    2184    2190       6    2181    2178    2184    2193       6
    2181    2178    2184    2196       6    2181    2178    2187    2199       6
    2181    2178    2187    2202       6    2181    2178    2187    2205       6
    2217    2208    2214    2220       5    2217    2208   -2214    2220       6
    2217    2208    2214    2223       5    2217    2208   -2214    2223       6
    2217    2208    2214    2226       5    2217    2208   -2214    2226       6
    2214    2208    2217    2229       5    2214    2208   -2217    2229       6
    2214    2208    2217    2232       5    2214    2208   -2217    2232       6
    2214    2208    2217    2235       5    2214    2208   -2217    2235       6
    2211    2208    2214    2220       6    2211    2208    2214    2223       6
    2211    2208    2214    2226       6    2211    2208    2217    2229       6
    2211    2208    2217    2232       6    2211    2208    2217    2235       6
    2247    2238    2244    2250       5    2247    2238   -2244    2250       6
    2247    2238    2244    2253       5    2247    2238   -2244    2253       6
    2247    2238    2244    2256       5    2247    2238   -2244    2256       6
    2244    2238    2247    2259       5    2244    2238   -2247    2259       6
    2244    2238    2247    2262       5    2244    2238   -2247    2262       6
    2244    2238    2247    2265       5    2244    2238   -2247    2265       6
    2241    2238    2244    2250       6    2241    2238    2244    2253       6
    2241    2238    2244    2256       6    2241    2238    2247    2259       6
    2241    2238    2247    2262       6    2241    2238    2247    2265       6
    2277    2268    2274    2280       5    2277    2268   -2274    2280       6
    2277    2268    2274    2283       5    2277    2268   -2274    2283       6
    2277    2268    2274    2286       5    2277    2268   -2274    2286       6
    2274    2268    2277    2289       5    2274    2268   -2277    2289       6
    2274    2268    2277    2292       5    2274    2268   -2277    2292       6
    2274    2268    2277    2295       5    2274    2268   -2277    2295       6
    2271    2268    2274    2280       6    2271    2268    2274    2283       6
    2271    2268    2274    2286       6    2271    2268    2277    2289       6
    2271    2268    2277    2292       6    2271    2268    2277    2295       6
    2307    2298    2304    2310       5    2307    2298   -2304    2310       6
    2307    2298    2304    2313       5    2307    2298   -2304    2313       6
    2307    2298    2304    2316       5    2307    2298   -2304    2316       6
    2304    2298    2307    2319       5    2304    2298   -2307    2319       6
    2304    2298    2307    2322       5    2304    2298   -2307    2322       6
    2304    2298    2307    2325       5    2304    2298   -2307    2325       6
    2301    2298    2304    2310       6    2301    2298    2304    2313       6
    2301    2298    2304    2316       6    2301    2298    2307    2319       6
    2301    2298    2307    2322       6    2301    2298    2307    2325       6
    2337    2328    2334    2340       5    2337    2328   -2334    2340       6
    2337    2328    2334    2343       5    2337    2328   -2334    2343       6
    2337    2328    2334    2346       5    2337    2328   -2334    2346       6
    2334    2328    2337    2349       5    2334    2328   -2337    2349       6
    2334    2328    2337    2352       5    2334    2328   -2337    2352       6
    2334    2328    2337    2355       5    2334    2328   -2337    2355       6
    2331    2328    2334    2340       6    2331    2328    2334    2343       6
    2331    2328    2334    2346       6    2331    2328    2337    2349       6
    2331    2328    2337    2352       6    2331    2328    2337    2355       6
    2367    2358    2364    2370       5    2367    2358   -2364    2370       6
    2367    2358    2364    2373       5    2367    2358   -2364    2373       6
    2367    2358    2364    2376       5    2367    2358   -2364    2376       6
    2364    2358    2367    2379       5    2364    2358   -2367    2379       6
    2364    2358    2367    2382       5    2364    2358   -2367    2382       6
    2364    2358    2367    2385       5    2364    2358   -2367    2385       6
    2361    2358    2364    2370       6    2361    2358    2364    2373       6
    2361    2358    2364    2376       6    2361    2358    2367    2379       6
    2361    2358    2367    2382       6    2361    2358    2367    2385       6
    2397    2388    2394    2400       5    2397    2388   -2394    2400       6
    2397    2388    2394    2403       5    2397    2388   -2394    2403       6
    2397    2388    2394    2406       5    2397    2388   -2394    2406       6
    2394    2388    2397    2409       5    2394    2388   -2397    2409       6
    2394    2388    2397    2412       5    2394    2388   -2397    2412       6
    2394    2388    2397    2415       5    2394    2388   -2397    2415       6
    2391    2388    2394    2400       6    2391    2388    2394    2403       6
    2391    2388    2394    2406       6    2391    2388    2397    2409       6
    2391    2388    2397    2412       6    2391    2388    2397    2415       6
    2427    2418    2424    2430       5    2427    2418   -2424    2430       6
    2427    2418    2424    2433       5    2427    2418   -2424    2433       6
    2427    2418    2424    2436       5    2427    2418   -2424    2436       6
    2424    2418    2427    2439       5    2424    2418   -2427    2439       6
    2424    2418    2427    2442       5    2424    2418   -2427    2442       6
    2424    2418    2427    2445       5    2424    2418   -2427    2445       6
    2421    2418    2424    2430       6    2421    2418    2424    2433       6
    2421    2418    2424    2436       6    2421    2418    2427    2439       6
    2421    2418    2427    2442       6    2421    2418    2427    2445       6
    2457    2448    2454    2460       5    2457    2448   -2454    2460       6
    2457    2448    2454    2463       5    2457    2448   -2454    2463       6
    2457    2448    2454    2466       5    2457    2448   -2454    2466       6
    2454    2448    2457    2469       5    2454    2448   -2457    2469       6
    2454    2448    2457    2472       5    2454    2448   -2457    2472       6
    2454    2448    2457    2475       5    2454    2448   -2457    2475       6
    2451    2448    2454    2460       6    2451    2448    2454    2463       6
    2451    2448    2454    2466       6    2451    2448    2457    2469       6
    2451    2448    2457    2472       6    2451    2448    2457    2475       6
    2487    2478    2484    2490       5    2487    2478   -2484    2490       6
    2487    2478    2484    2493       5    2487    2478   -2484    2493       6
    2487    2478    2484    2496       5    2487    2478   -2484    2496       6
    2484    2478    2487    2499       5    2484    2478   -2487    2499       6
    2484    2478    2487    2502       5    2484    2478   -2487    2502       6
    2484    2478    2487    2505       5    2484    2478   -2487    2505       6
    2481    2478    2484    2490       6    2481    2478    2484    2493       6
    2481    2478    2484    2496       6    2481    2478    2487    2499       6
    2481    2478    2487    2502       6    2481    2478    2487    2505       6
    2517    2508    2514    2520       5    2517    2508   -2514    2520       6
    2517    2508    2514    2523       5    2517    2508   -2514    2523       6
    2517    2508    2514    2526       5    2517    2508   -2514    2526       6
    2514    2508    2517    2529       5    2514    2508   -2517    2529       6
    2514    2508    2517    2532       5    2514    2508   -2517    2532       6
    2514    2508    2517    2535       5    2514    2508   -2517    2535       6
    2511    2508    2514    2520       6    2511    2508    2514    2523       6
    2511    2508    2514    2526       6    2511    2508    2517    2529       6
    2511    2508    2517    2532       6    2511    2508    2517    2535       6
    2547    2538    2544    2550       5    2547    2538   -2544    2550       6
    2547    2538    2544    2553       5    2547    2538   -2544    2553       6
    2547    2538    2544    2556       5    2547    2538   -2544    2556       6
    2544    2538    2547    2559       5    2544    2538   -2547    2559       6
    2544    2538    2547    2562       5    2544    2538   -2547    2562       6
    2544    2538    2547    2565       5    2544    2538   -2547    2565       6
    2541    2538    2544    2550       6    2541    2538    2544    2553       6
    2541    2538    2544    2556       6    2541    2538    2547    2559       6
    2541    2538    2547    2562       6    2541    2538    2547    2565       6
    2577    2568    2574    2580       5    2577    2568   -2574    2580       6
    2577    2568    2574    2583       5    2577    2568   -2574    2583       6
    2577    2568    2574    2586       5    2577    2568   -2574    2586       6
    2574    2568    2577    2589       5    2574    2568   -2577    2589       6
    2574    2568    2577    2592       5    2574    2568   -2577    2592       6
    2574    2568    2577    2595       5    2574    2568   -2577    2595       6
    2571    2568    2574    2580       6    2571    2568    2574    2583       6
    2571    2568    2574    2586       6    2571    2568    2577    2589       6
    2571    2568    2577    2592       6    2571    2568    2577    2595       6
    2607    2598    2604    2610       5    2607    2598   -2604    2610       6
    2607    2598    2604    2613       5    2607    2598   -2604    2613       6
    2607    2598    2604    2616       5    2607    2598   -2604    2616       6
    2604    2598    2607    2619       5    2604    2598   -2607    2619       6
    2604    2598    2607    2622       5    2604    2598   -2607    2622       6
    2604    2598    2607    2625       5    2604    2598   -2607    2625       6
    2601    2598    2604    2610       6    2601    2598    2604    2613       6
    2601    2598    2604    2616       6    2601    2598    2607    2619       6
    2601    2598    2607    2622       6    2601    2598    2607    2625       6
    2637    2628    2634    2640       5    2637    2628   -2634    2640       6
    2637    2628    2634    2643       5    2637    2628   -2634    2643       6
    2637    2628    2634    2646       5    2637    2628   -2634    2646       6
    2634    2628    2637    2649       5    2634    2628   -2637    2649       6
    2634    2628    2637    2652       5    2634    2628   -2637    2652       6
    2634    2628    2637    2655       5    2634    2628   -2637    2655       6
    2631    2628    2634    2640       6    2631    2628    2634    2643       6
    2631    2628    2634    2646       6    2631    2628    2637    2649       6
    2631    2628    2637    2652       6    2631    2628    2637    2655       6
    2667    2658    2664    2670       5    2667    2658   -2664    2670       6
    2667    2658    2664    2673       5    2667    2658   -2664    2673       6
    2667    2658    2664    2676       5    2667    2658   -2664    2676       6
    2664    2658    2667    2679       5    2664    2658   -2667    2679       6
    2664    2658    2667    2682       5    2664    2658   -2667    2682       6
    2664    2658    2667    2685       5    2664    2658   -2667    2685       6
    2661    2658    2664    2670       6    2661    2658    2664    2673       6
    2661    2658    2664    2676       6    2661    2658    2667    2679       6
    2661    2658    2667    2682       6    2661    2658    2667    2685       6
    2697    2688    2694    2700       5    2697    2688   -2694    2700       6
    2697    2688    2694    2703       5    2697    2688   -2694    2703       6
    2697    2688    2694    2706       5    2697    2688   -2694    2706       6
    2694    2688    2697    2709       5    2694    2688   -2697    2709       6
    2694    2688    2697    2712       5    2694    2688   -2697    2712       6
    2694    2688    2697    2715       5    2694    2688   -2697    2715       6
    2691    2688    2694    2700       6    2691    2688    2694    2703       6
    2691    2688    2694    2706       6    2691    2688    2697    2709       6
    2691    2688    2697    2712       6    2691    2688    2697    2715       6
    2727    2718    2724    2730       5    2727    2718   -2724    2730       6
    2727    2718    2724    2733       5    2727    2718   -2724    2733       6
    2727    2718    2724    2736       5    2727    2718   -2724    2736       6
    2724    2718    2727    2739       5    2724    2718   -2727    2739       6
    2724    2718    2727    2742       5    2724    2718   -2727    2742       6
    2724    2718    2727    2745       5    2724    2718   -2727    2745       6
    2721    2718    2724    2730       6    2721    2718    2724    2733       6
    2721    2718    2724    2736       6    2721    2718    2727    2739       6
    2721    2718    2727    2742       6    2721    2718    2727    2745       6
    2757    2748    2754    2760       5    2757    2748   -2754    2760       6
    2757    2748    2754    2763       5    2757    2748   -2754    2763       6
    2757    2748    2754    2766       5    2757    2748   -2754    2766       6
    2754    2748    2757    2769       5    2754    2748   -2757    2769       6
    2754    2748    2757    2772       5    2754    2748   -2757    2772       6
    2754    2748    2757    2775       5    2754    2748   -2757    2775       6
    2751    2748    2754    2760       6    2751    2748    2754    2763       6
    2751    2748    2754    2766       6    2751    2748    2757    2769       6
    2751    2748    2757    2772       6    2751    2748    2757    2775       6
    2787    2778    2784    2790       5    2787    2778   -2784    2790       6
    2787    2778    2784    2793       5    2787    2778   -2784    2793       6
    2787    2778    2784    2796       5    2787    2778   -2784    2796       6
    2784    2778    2787    2799       5    2784    2778   -2787    2799       6
    2784    2778    2787    2802       5    2784    2778   -2787    2802       6
    2784    2778    2787    2805       5    2784    2778   -2787    2805       6
    2781    2778    2784    2790       6    2781    2778    2784    2793       6
    2781    2778    2784    2796       6    2781    2778    2787    2799       6
    2781    2778    2787    2802       6    2781    2778    2787    2805       6
    2817    2808    2814    2820       5    2817    2808   -2814    2820       6
    2817    2808    2814    2823       5    2817    2808   -2814    2823       6
    2817    2808    2814    2826       5    2817    2808   -2814    2826       6
    2814    2808    2817    2829       5    2814    2808   -2817    2829       6
    2814    2808    2817    2832       5    2814    2808   -2817    2832       6
    2814    2808    2817    2835       5    2814    2808   -2817    2835       6
    2811    2808    2814    2820       6    2811    2808    2814    2823       6
    2811    2808    2814    2826       6    2811    2808    2817    2829       6
    2811    2808    2817    2832       6    2811    2808    2817    2835       6
    2847    2838    2844    2850       5    2847    2838   -2844    2850       6
    2847    2838    2844    2853       5    2847    2838   -2844    2853       6
    2847    2838    2844    2856       5    2847    2838   -2844    2856       6
    2844    2838    2847    2859       5    2844    2838   -2847    2859       6
    2844    2838    2847    2862       5    2844    2838   -2847    2862       6
    2844    2838    2847    2865       5    2844    2838   -2847    2865       6
    2841    2838    2844    2850       6    2841    2838    2844    2853       6
    2841    2838    2844    2856       6    2841    2838    2847    2859       6
    2841    2838    2847    2862       6    2841    2838    2847    2865       6
    2877    2868    2874    2880       5    2877    2868   -2874    2880       6
    2877    2868    2874    2883       5    2877    2868   -2874    2883       6
    2877    2868    2874    2886       5    2877    2868   -2874    2886       6
    2874    2868    2877    2889       5    2874    2868   -2877    2889       6
    2874    2868    2877    2892       5    2874    2868   -2877    2892       6
    2874    2868    2877    2895       5    2874    2868   -2877    2895       6
    2871    2868    2874    2880       6    2871    2868    2874    2883       6
    2871    2868    2874    2886       6    2871    2868    2877    2889       6
    2871    2868    2877    2892       6    2871    2868    2877    2895       6
    2907    2898    2904    2910       5    2907    2898   -2904    2910       6
    2907    2898    2904    2913       5    2907    2898   -2904    2913       6
    2907    2898    2904    2916       5    2907    2898   -2904    2916       6
    2904    2898    2907    2919       5    2904    2898   -2907    2919       6
    2904    2898    2907    2922       5    2904    2898   -2907    2922       6
    2904    2898    2907    2925       5    2904    2898   -2907    2925       6
    2901    2898    2904    2910       6    2901    2898    2904    2913       6
    2901    2898    2904    2916       6    2901    2898    2907    2919       6
    2901    2898    2907    2922       6    2901    2898    2907    2925       6
    2937    2928    2934    2940       5    2937    2928   -2934    2940       6
    2937    2928    2934    2943       5    2937    2928   -2934    2943       6
    2937    2928    2934    2946       5    2937    2928   -2934    2946       6
    2934    2928    2937    2949       5    2934    2928   -2937    2949       6
    2934    2928    2937    2952       5    2934    2928   -2937    2952       6
    2934    2928    2937    2955       5    2934    2928   -2937    2955       6
    2931    2928    2934    2940       6    2931    2928    2934    2943       6
    2931    2928    2934    2946       6    2931    2928    2937    2949       6
    2931    2928    2937    2952       6    2931    2928    2937    2955       6
    2967    2958    2964    2970       5    2967    2958   -2964    2970       6
    2967    2958    2964    2973       5    2967    2958   -2964    2973       6
    2967    2958    2964    2976       5    2967    2958   -2964    2976       6
    2964    2958    2967    2979       5    2964    2958   -2967    2979       6
    2964    2958    2967    2982       5    2964    2958   -2967    2982       6
    2964    2958    2967    2985       5    2964    2958   -2967    2985       6
    2961    2958    2964    2970       6    2961    2958    2964    2973       6
    2961    2958    2964    2976       6    2961    2958    2967    2979       6
    2961    2958    2967    2982       6    2961    2958    2967    2985       6
    2997    2988    2994    3000       5    2997    2988   -2994    3000       6
    2997    2988    2994    3003       5    2997    2988   -2994    3003       6
    2997    2988    2994    3006       5    2997    2988   -2994    3006       6
    2994    2988    2997    3009       5    2994    2988   -2997    3009       6
    2994    2988    2997    3012       5    2994    2988   -2997    3012       6
    2994    2988    2997    3015       5    2994    2988   -2997    3015       6
    2991    2988    2994    3000       6    2991    2988    2994    3003       6
    2991    2988    2994    3006       6    2991    2988    2997    3009       6
    2991    2988    2997    3012       6    2991    2988    2997    3015       6
    3027    3018    3024    3030       5    3027    3018   -3024    3030       6
    3027    3018    3024    3033       5    3027    3018   -3024    3033       6
    3027    3018    3024    3036       5    3027    3018   -3024    3036       6
    3024    3018    3027    3039       5    3024    3018   -3027    3039       6
    3024    3018    3027    3042       5    3024    3018   -3027    3042       6
    3024    3018    3027    3045       5    3024    3018   -3027    3045       6
    3021    3018    3024    3030       6    3021    3018    3024    3033       6
    3021    3018    3024    3036       6    3021    3018    3027    3039       6
    3021    3018    3027    3042       6    3021    3018    3027    3045       6
    3057    3048    3054    3060       5    3057    3048   -3054    3060       6
    3057    3048    3054    3063       5    3057    3048   -3054    3063       6
    3057    3048    3054    3066       5    3057    3048   -3054    3066       6
    3054    3048    3057    3069       5    3054    3048   -3057    3069       6
    3054    3048    3057    3072       5    3054    3048   -3057    3072       6
    3054    3048    3057    3075       5    3054    3048   -3057    3075       6
    3051    3048    3054    3060       6    3051    3048    3054    3063       6
    3051    3048    3054    3066       6    3051    3048    3057    3069       6
    3051    3048    3057    3072       6    3051    3048    3057    3075       6
    3087    3078    3084    3090       5    3087    3078   -3084    3090       6
    3087    3078    3084    3093       5    3087    3078   -3084    3093       6
    3087    3078    3084    3096       5    3087    3078   -3084    3096       6
    3084    3078    3087    3099       5    3084    3078   -3087    3099       6
    3084    3078    3087    3102       5    3084    3078   -3087    3102       6
    3084    3078    3087    3105       5    3084    3078   -3087    3105       6
    3081    3078    3084    3090       6    3081    3078    3084    3093       6
    3081    3078    3084    3096       6    3081    3078    3087    3099       6
    3081    3078    3087    3102       6    3081    3078    3087    3105       6
    3117    3108    3114    3120       5    3117    3108   -3114    3120       6
    3117    3108    3114    3123       5    3117    3108   -3114    3123       6
    3117    3108    3114    3126       5    3117    3108   -3114    3126       6
    3114    3108    3117    3129       5    3114    3108   -3117    3129       6
    3114    3108    3117    3132       5    3114    3108   -3117    3132       6
    3114    3108    3117    3135       5    3114    3108   -3117    3135       6
    3111    3108    3114    3120       6    3111    3108    3114    3123       6
    3111    3108    3114    3126       6    3111    3108    3117    3129       6
    3111    3108    3117    3132       6    3111    3108    3117    3135       6
    3147    3138    3144    3150       5    3147    3138   -3144    3150       6
    3147    3138    3144    3153       5    3147    3138   -3144    3153       6
    3147    3138    3144    3156       5    3147    3138   -3144    3156       6
    3144    3138    3147    3159       5    3144    3138   -3147    3159       6
    3144    3138    3147    3162       5    3144    3138   -3147    3162       6
    3144    3138    3147    3165       5    3144    3138   -3147    3165       6
    3141    3138    3144    3150       6    3141    3138    3144    3153       6
    3141    3138    3144    3156       6    3141    3138    3147    3159       6
    3141    3138    3147    3162       6    3141    3138    3147    3165       6
    3177    3168    3174    3180       5    3177    3168   -3174    3180       6
    3177    3168    3174    3183       5    3177    3168   -3174    3183       6
    3177    3168    3174    3186       5    3177    3168   -3174    3186       6
    3174    3168    3177    3189       5    3174    3168   -3177    3189       6
    3174    3168    3177    3192       5    3174    3168   -3177    3192       6
    3174    3168    3177    3195       5    3174    3168   -3177    3195       6
    3171    3168    3174    3180       6    3171    3168    3174    3183       6
    3171    3168    3174    3186       6    3171    3168    3177    3189       6
    3171    3168    3177    3192       6    3171    3168    3177    3195       6
    3207    3198    3204    3210       5    3207    3198   -3204    3210       6
    3207    3198    3204    3213       5    3207    3198   -3204    3213       6
    3207    3198    3204    3216       5    3207    3198   -3204    3216       6
    3204    3198    3207    3219       5    3204    3198   -3207    3219       6
    3204    3198    3207    3222       5    3204    3198   -3207    3222       6
    3204    3198    3207    3225       5    3204    3198   -3207    3225       6
    3201    3198    3204    3210       6    3201    3198    3204    3213       6
    3201    3198    3204    3216       6    3201    3198    3207    3219       6
    3201    3198    3207    3222       6    3201    3198    3207    3225       6
    3237    3228    3234    3240       5    3237    3228   -3234    3240       6
    3237    3228    3234    3243       5    3237    3228   -3234    3243       6
    3237    3228    3234    3246       5    3237    3228   -3234    3246       6
    3234    3228    3237    3249       5    3234    3228   -3237    3249       6
    3234    3228    3237    3252       5    3234    3228   -3237    3252       6
    3234    3228    3237    3255       5    3234    3228   -3237    3255       6
    3231    3228    3234    3240       6    3231    3228    3234    3243       6
    3231    3228    3234    3246       6    3231    3228    3237    3249       6
    3231    3228    3237    3252       6    3231    3228    3237    3255       6
    3267    3258    3264    3270       5    3267    3258   -3264    3270       6
    3267    3258    3264    3273       5    3267    3258   -3264    3273       6
    3267    3258    3264    3276       5    3267    3258   -3264    3276       6
    3264    3258    3267    3279       5    3264    3258   -3267    3279       6
    3264    3258    3267    3282       5    3264    3258   -3267    3282       6
    3264    3258    3267    3285       5    3264    3258   -3267    3285       6
    3261    3258    3264    3270       6    3261    3258    3264    3273       6
    3261    3258    3264    3276       6    3261    3258    3267    3279       6
    3261    3258    3267    3282       6    3261    3258    3267    3285       6
    3297    3288    3294    3300       5    3297    3288   -3294    3300       6
    3297    3288    3294    3303       5    3297    3288   -3294    3303       6
    3297    3288    3294    3306       5    3297    3288   -3294    3306       6
    3294    3288    3297    3309       5    3294    3288   -3297    3309       6
    3294    3288    3297    3312       5    3294    3288   -3297    3312       6
    3294    3288    3297    3315       5    3294    3288   -3297    3315       6
    3291    3288    3294    3300       6    3291    3288    3294    3303       6
    3291    3288    3294    3306       6    3291    3288    3297    3309       6
    3291    3288    3297    3312       6    3291    3288    3297    3315       6
    3327    3318    3324    3330       5    3327    3318   -3324    3330       6
    3327    3318    3324    3333       5    3327    3318   -3324    3333       6
    3327    3318    3324    3336       5    3327    3318   -3324    3336       6
    3324    3318    3327    3339       5    3324    3318   -3327    3339       6
    3324    3318    3327    3342       5    3324    3318   -3327    3342       6
    3324    3318    3327    3345       5    3324    3318   -3327    3345       6
    3321    3318    3324    3330       6    3321    3318    3324    3333       6
    3321    3318    3324    3336       6    3321    3318    3327    3339       6
    3321    3318    3327    3342       6    3321    3318    3327    3345       6
    3357    3348    3354    3360       5    3357    3348   -3354    3360       6
    3357    3348    3354    3363       5    3357    3348   -3354    3363       6
    3357    3348    3354    3366       5    3357    3348   -3354    3366       6
    3354    3348    3357    3369       5    3354    3348   -3357    3369       6
    3354    3348    3357    3372       5    3354    3348   -3357    3372       6
    3354    3348    3357    3375       5    3354    3348   -3357    3375       6
    3351    3348    3354    3360       6    3351    3348    3354    3363       6
    3351    3348    3354    3366       6    3351    3348    3357    3369       6
    3351    3348    3357    3372       6    3351    3348    3357    3375       6
    3387    3378    3384    3390       5    3387    3378   -3384    3390       6
    3387    3378    3384    3393       5    3387    3378   -3384    3393       6
    3387    3378    3384    3396       5    3387    3378   -3384    3396       6
    3384    3378    3387    3399       5    3384    3378   -3387    3399       6
    3384    3378    3387    3402       5    3384    3378   -3387    3402       6
    3384    3378    3387    3405       5    3384    3378   -3387    3405       6
    3381    3378    3384    3390       6    3381    3378    3384    3393       6
    3381    3378    3384    3396       6    3381    3378    3387    3399       6
    3381    3378    3387    3402       6    3381    3378    3387    3405       6
    3417    3408    3414    3420       5    3417    3408   -3414    3420       6
    3417    3408    3414    3423       5    3417    3408   -3414    3423       6
    3417    3408    3414    3426       5    3417    3408   -3414    3426       6
    3414    3408    3417    3429       5    3414    3408   -3417    3429       6
    3414    3408    3417    3432       5    3414    3408   -3417    3432       6
    3414    3408    3417    3435       5    3414    3408   -3417    3435       6
    3411    3408    3414    3420       6    3411    3408    3414    3423       6
    3411    3408    3414    3426       6    3411    3408    3417    3429       6
    3411    3408    3417    3432       6    3411    3408    3417    3435       6
    3447    3438    3444    3450       5    3447    3438   -3444    3450       6
    3447    3438    3444    3453       5    3447    3438   -3444    3453       6
    3447    3438    3444    3456       5    3447    3438   -3444    3456       6
    3444    3438    3447    3459       5    3444    3438   -3447    3459       6
    3444    3438    3447    3462       5    3444    3438   -3447    3462       6
    3444    3438    3447    3465       5    3444    3438   -3447    3465       6
    3441    3438    3444    3450       6    3441    3438    3444    3453       6
    3441    3438    3444    3456       6    3441    3438    3447    3459       6
    3441    3438    3447    3462       6    3441    3438    3447    3465       6
    3477    3468    3474    3480       5    3477    3468   -3474    3480       6
    3477    3468    3474    3483       5    3477    3468   -3474    3483       6
    3477    3468    3474    3486       5    3477    3468   -3474    3486       6
    3474    3468    3477    3489       5    3474    3468   -3477    3489       6
    3474    3468    3477    3492       5    3474    3468   -3477    3492       6
    3474    3468    3477    3495       5    3474    3468   -3477    3495       6
    3471    3468    3474    3480       6    3471    3468    3474    3483       6
    3471    3468    3474    3486       6    3471    3468    3477    3489       6
    3471    3468    3477    3492       6    3471    3468    3477    3495       6
    3507    3498    3504    3510       5    3507    3498   -3504    3510       6
    3507    3498    3504    3513       5    3507    3498   -3504    3513       6
    3507    3498    3504    3516       5    3507    3498   -3504    3516       6
    3504    3498    3507    3519       5    3504    3498   -3507    3519       6
    3504    3498    3507    3522       5    3504    3498   -3507    3522       6
    3504    3498    3507    3525       5    3504    3498   -3507    3525       6
    3501    3498    3504    3510       6    3501    3498    3504    3513       6
    3501    3498    3504    3516       6    3501    3498    3507    3519       6
    3501    3498    3507    3522       6    3501    3498    3507    3525       6
    3537    3528    3534    3540       5    3537    3528   -3534    3540       6
    3537    3528    3534    3543       5    3537    3528   -3534    3543       6
    3537    3528    3534    3546       5    3537    3528   -3534    3546       6
    3534    3528    3537    3549       5    3534    3528   -3537    3549       6
    3534    3528    3537    3552       5    3534    3528   -3537    3552       6
    3534    3528    3537    3555       5    3534    3528   -3537    3555       6
    3531    3528    3534    3540       6    3531    3528    3534    3543       6
    3531    3528    3534    3546       6    3531    3528    3537    3549       6
    3531    3528    3537    3552       6    3531    3528    3537    3555       6
    3567    3558    3564    3570       5    3567    3558   -3564    3570       6
    3567    3558    3564    3573       5    3567    3558   -3564    3573       6
    3567    3558    3564    3576       5    3567    3558   -3564    3576       6
    3564    3558    3567    3579       5    3564    3558   -3567    3579       6
    3564    3558    3567    3582       5    3564    3558   -3567    3582       6
    3564    3558    3567    3585       5    3564    3558   -3567    3585       6
    3561    3558    3564    3570       6    3561    3558    3564    3573       6
    3561    3558    3564    3576       6    3561    3558    3567    3579       6
    3561    3558    3567    3582       6    3561    3558    3567    3585       6
    3597    3588    3594    3600       5    3597    3588   -3594    3600       6
    3597    3588    3594    3603       5    3597    3588   -3594    3603       6
    3597    3588    3594    3606       5    3597    3588   -3594    3606       6
    3594    3588    3597    3609       5    3594    3588   -3597    3609       6
    3594    3588    3597    3612       5    3594    3588   -3597    3612       6
    3594    3588    3597    3615       5    3594    3588   -3597    3615       6
    3591    3588    3594    3600       6    3591    3588    3594    3603       6
    3591    3588    3594    3606       6    3591    3588    3597    3609       6
    3591    3588    3597    3612       6    3591    3588    3597    3615       6
    3627    3618    3624    3630       5    3627    3618   -3624    3630       6
    3627    3618    3624    3633       5    3627    3618   -3624    3633       6
    3627    3618    3624    3636       5    3627    3618   -3624    3636       6
    3624    3618    3627    3639       5    3624    3618   -3627    3639       6
    3624    3618    3627    3642       5    3624    3618   -3627    3642       6
    3624    3618    3627    3645       5    3624    3618   -3627    3645       6
    3621    3618    3624    3630       6    3621    3618    3624    3633       6
    3621    3618    3624    3636       6    3621    3618    3627    3639       6
    3621    3618    3627    3642       6    3621    3618    3627    3645       6
    3657    3648    3654    3660       5    3657    3648   -3654    3660       6
    3657    3648    3654    3663       5    3657    3648   -3654    3663       6
    3657    3648    3654    3666       5    3657    3648   -3654    3666       6
    3654    3648    3657    3669       5    3654    3648   -3657    3669       6
    3654    3648    3657    3672       5    3654    3648   -3657    3672       6
    3654    3648    3657    3675       5    3654    3648   -3657    3675       6
    3651    3648    3654    3660       6    3651    3648    3654    3663       6
    3651    3648    3654    3666       6    3651    3648    3657    3669       6
    3651    3648    3657    3672       6    3651    3648    3657    3675       6
    3687    3678    3684    3690       5    3687    3678   -3684    3690       6
    3687    3678    3684    3693       5    3687    3678   -3684    3693       6
    3687    3678    3684    3696       5    3687    3678   -3684    3696       6
    3684    3678    3687    3699       5    3684    3678   -3687    3699       6
    3684    3678    3687    3702       5    3684    3678   -3687    3702       6
    3684    3678    3687    3705       5    3684    3678   -3687    3705       6
    3681    3678    3684    3690       6    3681    3678    3684    3693       6
    3681    3678    3684    3696       6    3681    3678    3687    3699       6
    3681    3678    3687    3702       6    3681    3678    3687    3705       6
    3717    3708    3714    3720       5    3717    3708   -3714    3720       6
    3717    3708    3714    3723       5    3717    3708   -3714    3723       6
    3717    3708    3714    3726       5    3717    3708   -3714    3726       6
    3714    3708    3717    3729       5    3714    3708   -3717    3729       6
    3714    3708    3717    3732       5    3714    3708   -3717    3732       6
    3714    3708    3717    3735       5    3714    3708   -3717    3735       6
    3711    3708    3714    3720       6    3711    3708    3714    3723       6
    3711    3708    3714    3726       6    3711    3708    3717    3729       6
    3711    3708    3717    3732       6    3711    3708    3717    3735       6
    3747    3738    3744    3750       5    3747    3738   -3744    3750       6
    3747    3738    3744    3753       5    3747    3738   -3744    3753       6
    3747    3738    3744    3756       5    3747    3738   -3744    3756       6
    3744    3738    3747    3759       5    3744    3738   -3747    3759       6
    3744    3738    3747    3762       5    3744    3738   -3747    3762       6
    3744    3738    3747    3765       5    3744    3738   -3747    3765       6
    3741    3738    3744    3750       6    3741    3738    3744    3753       6
    3741    3738    3744    3756       6    3741    3738    3747    3759       6
    3741    3738    3747    3762       6    3741    3738    3747    3765       6
    3777    3768    3774    3780       5    3777    3768   -3774    3780       6
    3777    3768    3774    3783       5    3777    3768   -3774    3783       6
    3777    3768    3774    3786       5    3777    3768   -3774    3786       6
    3774    3768    3777    3789       5    3774    3768   -3777    3789       6
    3774    3768    3777    3792       5    3774    3768   -3777    3792       6
    3774    3768    3777    3795       5    3774    3768   -3777    3795       6
    3771    3768    3774    3780       6    3771    3768    3774    3783       6
    3771    3768    3774    3786       6    3771    3768    3777    3789       6
    3771    3768    3777    3792       6    3771    3768    3777    3795       6
    3807    3798    3804    3810       5    3807    3798   -3804    3810       6
    3807    3798    3804    3813       5    3807    3798   -3804    3813       6
    3807    3798    3804    3816       5    3807    3798   -3804    3816       6
    3804    3798    3807    3819       5    3804    3798   -3807    3819       6
    3804    3798    3807    3822       5    3804    3798   -3807    3822       6
    3804    3798    3807    3825       5    3804    3798   -3807    3825       6
    3801    3798    3804    3810       6    3801    3798    3804    3813       6
    3801    3798    3804    3816       6    3801    3798    3807    3819       6
    3801    3798    3807    3822       6    3801    3798    3807    3825       6
    3837    3828    3834    3840       5    3837    3828   -3834    3840       6
    3837    3828    3834    3843       5    3837    3828   -3834    3843       6
    3837    3828    3834    3846       5    3837    3828   -3834    3846       6
    3834    3828    3837    3849       5    3834    3828   -3837    3849       6
    3834    3828    3837    3852       5    3834    3828   -3837    3852       6
    3834    3828    3837    3855       5    3834    3828   -3837    3855       6
    3831    3828    3834    3840       6    3831    3828    3834    3843       6
    3831    3828    3834    3846       6    3831    3828    3837    3849       6
    3831    3828    3837    3852       6    3831    3828    3837    3855       6
    3867    3858    3864    3870       5    3867    3858   -3864    3870       6
    3867    3858    3864    3873       5    3867    3858   -3864    3873       6
    3867    3858    3864    3876       5    3867    3858   -3864    3876       6
    3864    3858    3867    3879       5    3864    3858   -3867    3879       6
    3864    3858    3867    3882       5    3864    3858   -3867    3882       6
    3864    3858    3867    3885       5    3864    3858   -3867    3885       6
    3861    3858    3864    3870       6    3861    3858    3864    3873       6
    3861    3858    3864    3876       6    3861    3858    3867    3879       6
    3861    3858    3867    3882       6    3861    3858    3867    3885       6
    3897    3888    3894    3900       5    3897    3888   -3894    3900       6
    3897    3888    3894    3903       5    3897    3888   -3894    3903       6
    3897    3888    3894    3906       5    3897    3888   -3894    3906       6
    3894    3888    3897    3909       5    3894    3888   -3897    3909       6
    3894    3888    3897    3912       5    3894    3888   -3897    3912       6
    3894    3888    3897    3915       5    3894    3888   -3897    3915       6
    3891    3888    3894    3900       6    3891    3888    3894    3903       6
    3891    3888    3894    3906       6    3891    3888    3897    3909       6
    3891    3888    3897    3912       6    3891    3888    3897    3915       6
    3927    3918    3924    3930       5    3927    3918   -3924    3930       6
    3927    3918    3924    3933       5    3927    3918   -3924    3933       6
    3927    3918    3924    3936       5    3927    3918   -3924    3936       6
    3924    3918    3927    3939       5    3924    3918   -3927    3939       6
    3924    3918    3927    3942       5    3924    3918   -3927    3942       6
    3924    3918    3927    3945       5    3924    3918   -3927    3945       6
    3921    3918    3924    3930       6    3921    3918    3924    3933       6
    3921    3918    3924    3936       6    3921    3918    3927    3939       6
    3921    3918    3927    3942       6    3921    3918    3927    3945       6
    3957    3948    3954    3960       5    3957    3948   -3954    3960       6
    3957    3948    3954    3963       5    3957    3948   -3954    3963       6
    3957    3948    3954    3966       5    3957    3948   -3954    3966       6
    3954    3948    3957    3969       5    3954    3948   -3957    3969       6
    3954    3948    3957    3972       5    3954    3948   -3957    3972       6
    3954    3948    3957    3975       5    3954    3948   -3957    3975       6
    3951    3948    3954    3960       6    3951    3948    3954    3963       6
    3951    3948    3954    3966       6    3951    3948    3957    3969       6
    3951    3948    3957    3972       6    3951    3948    3957    3975       6
    3987    3978    3984    3990       5    3987    3978   -3984    3990       6
    3987    3978    3984    3993       5    3987    3978   -3984    3993       6
    3987    3978    3984    3996       5    3987    3978   -3984    3996       6
    3984    3978    3987    3999       5    3984    3978   -3987    3999       6
    3984    3978    3987    4002       5    3984    3978   -3987    4002       6
    3984    3978    3987    4005       5    3984    3978   -3987    4005       6
    3981    3978    3984    3990       6    3981    3978    3984    3993       6
    3981    3978    3984    3996       6    3981    3978    3987    3999       6
    3981    3978    3987    4002       6    3981    3978    3987    4005       6
    4017    4008    4014    4020       5    4017    4008   -4014    4020       6
    4017    4008    4014    4023       5    4017    4008   -4014    4023       6
    4017    4008    4014    4026       5    4017    4008   -4014    4026       6
    4014    4008    4017    4029       5    4014    4008   -4017    4029       6
    4014    4008    4017    4032       5    4014    4008   -4017    4032       6
    4014    4008    4017    4035       5    4014    4008   -4017    4035       6
    4011    4008    4014    4020       6    4011    4008    4014    4023       6
    4011    4008    4014    4026       6    4011    4008    4017    4029       6
    4011    4008    4017    4032       6    4011    4008    4017    4035       6
    4047    4038    4044    4050       5    4047    4038   -4044    4050       6
    4047    4038    4044    4053       5    4047    4038   -4044    4053       6
    4047    4038    4044    4056       5    4047    4038   -4044    4056       6
    4044    4038    4047    4059       5    4044    4038   -4047    4059       6
    4044    4038    4047    4062       5    4044    4038   -4047    4062       6
    4044    4038    4047    4065       5    4044    4038   -4047    4065       6
    4041    4038    4044    4050       6    4041    4038    4044    4053       6
    4041    4038    4044    4056       6    4041    4038    4047    4059       6
    4041    4038    4047    4062       6    4041    4038    4047    4065       6
    4077    4068    4074    4080       5    4077    4068   -4074    4080       6
    4077    4068    4074    4083       5    4077    4068   -4074    4083       6
    4077    4068    4074    4086       5    4077    4068   -4074    4086       6
    4074    4068    4077    4089       5    4074    4068   -4077    4089       6
    4074    4068    4077    4092       5    4074    4068   -4077    4092       6
    4074    4068    4077    4095       5    4074    4068   -4077    4095       6
    4071    4068    4074    4080       6    4071    4068    4074    4083       6
    4071    4068    4074    4086       6    4071    4068    4077    4089       6
    4071    4068    4077    4092       6    4071    4068    4077    4095       6
    4107    4098    4104    4110       5    4107    4098   -4104    4110       6
    4107    4098    4104    4113       5    4107    4098   -4104    4113       6
    4107    4098    4104    4116       5    4107    4098   -4104    4116       6
    4104    4098    4107    4119       5    4104    4098   -4107    4119       6
    4104    4098    4107    4122       5    4104    4098   -4107    4122       6
    4104    4098    4107    4125       5    4104    4098   -4107    4125       6
    4101    4098    4104    4110       6    4101    4098    4104    4113       6
    4101    4098    4104    4116       6    4101    4098    4107    4119       6
    4101    4098    4107    4122       6    4101    4098    4107    4125       6
    4137    4128    4134    4140       5    4137    4128   -4134    4140       6
    4137    4128    4134    4143       5    4137    4128   -4134    4143       6
    4137    4128    4134    4146       5    4137    4128   -4134    4146       6
    4134    4128    4137    4149       5    4134    4128   -4137    4149       6
    4134    4128    4137    4152       5    4134    4128   -4137    4152       6
    4134    4128    4137    4155       5    4134    4128   -4137    4155       6
    4131    4128    4134    4140       6    4131    4128    4134    4143       6
    4131    4128    4134    4146       6    4131    4128    4137    4149       6
    4131    4128    4137    4152       6    4131    4128    4137    4155       6
    4167    4158    4164    4170       5    4167    4158   -4164    4170       6
    4167    4158    4164    4173       5    4167    4158   -4164    4173       6
    4167    4158    4164    4176       5    4167    4158   -4164    4176       6
    4164    4158    4167    4179       5    4164    4158   -4167    4179       6
    4164    4158    4167    4182       5    4164    4158   -4167    4182       6
    4164    4158    4167    4185       5    4164    4158   -4167    4185       6
    4161    4158    4164    4170       6    4161    4158    4164    4173       6
    4161    4158    4164    4176       6    4161    4158    4167    4179       6
    4161    4158    4167    4182       6    4161    4158    4167    4185       6
    4197    4188    4194    4200       5    4197    4188   -4194    4200       6
    4197    4188    4194    4203       5    4197    4188   -4194    4203       6
    4197    4188    4194    4206       5    4197    4188   -4194    4206       6
    4194    4188    4197    4209       5    4194    4188   -4197    4209       6
    4194    4188    4197    4212       5    4194    4188   -4197    4212       6
    4194    4188    4197    4215       5    4194    4188   -4197    4215       6
    4191    4188    4194    4200       6    4191    4188    4194    4203       6
    4191    4188    4194    4206       6    4191    4188    4197    4209       6
    4191    4188    4197    4212       6    4191    4188    4197    4215       6
    4227    4218    4224    4230       5    4227    4218   -4224    4230       6
    4227    4218    4224    4233       5    4227    4218   -4224    4233       6
    4227    4218    4224    4236       5    4227    4218   -4224    4236       6
    4224    4218    4227    4239       5    4224    4218   -4227    4239       6
    4224    4218    4227    4242       5    4224    4218   -4227    4242       6
    4224    4218    4227    4245       5    4224    4218   -4227    4245       6
    4221    4218    4224    4230       6    4221    4218    4224    4233       6
    4221    4218    4224    4236       6    4221    4218    4227    4239       6
    4221    4218    4227    4242       6    4221    4218    4227    4245       6
    4257    4248    4254    4260       5    4257    4248   -4254    4260       6
    4257    4248    4254    4263       5    4257    4248   -4254    4263       6
    4257    4248    4254    4266       5    4257    4248   -4254    4266       6
    4254    4248    4257    4269       5    4254    4248   -4257    4269       6
    4254    4248    4257    4272       5    4254    4248   -4257    4272       6
    4254    4248    4257    4275       5    4254    4248   -4257    4275       6
    4251    4248    4254    4260       6    4251    4248    4254    4263       6
    4251    4248    4254    4266       6    4251    4248    4257    4269       6
    4251    4248    4257    4272       6    4251    4248    4257    4275       6
    4287    4278    4284    4290       5    4287    4278   -4284    4290       6
    4287    4278    4284    4293       5    4287    4278   -4284    4293       6
    4287    4278    4284    4296       5    4287    4278   -4284    4296       6
    4284    4278    4287    4299       5    4284    4278   -4287    4299       6
    4284    4278    4287    4302       5    4284    4278   -4287    4302       6
    4284    4278    4287    4305       5    4284    4278   -4287    4305       6
    4281    4278    4284    4290       6    4281    4278    4284    4293       6
    4281    4278    4284    4296       6    4281    4278    4287    4299       6
    4281    4278    4287    4302       6    4281    4278    4287    4305       6
    4317    4308    4314    4320       5    4317    4308   -4314    4320       6
    4317    4308    4314    4323       5    4317    4308   -4314    4323       6
    4317    4308    4314    4326       5    4317    4308   -4314    4326       6
    4314    4308    4317    4329       5    4314    4308   -4317    4329       6
    4314    4308    4317    4332       5    4314    4308   -4317    4332       6
    4314    4308    4317    4335       5    4314    4308   -4317    4335       6
    4311    4308    4314    4320       6    4311    4308    4314    4323       6
    4311    4308    4314    4326       6    4311    4308    4317    4329       6
    4311    4308    4317    4332       6    4311    4308    4317    4335       6
    4347    4338    4344    4350       5    4347    4338   -4344    4350       6
    4347    4338    4344    4353       5    4347    4338   -4344    4353       6
    4347    4338    4344    4356       5    4347    4338   -4344    4356       6
    4344    4338    4347    4359       5    4344    4338   -4347    4359       6
    4344    4338    4347    4362       5    4344    4338   -4347    4362       6
    4344    4338    4347    4365       5    4344    4338   -4347    4365       6
    4341    4338    4344    4350       6    4341    4338    4344    4353       6
    4341    4338    4344    4356       6    4341    4338    4347    4359       6
    4341    4338    4347    4362       6    4341    4338    4347    4365       6
    4377    4368    4374    4380       5    4377    4368   -4374    4380       6
    4377    4368    4374    4383       5    4377    4368   -4374    4383       6
    4377    4368    4374    4386       5    4377    4368   -4374    4386       6
    4374    4368    4377    4389       5    4374    4368   -4377    4389       6
    4374    4368    4377    4392       5    4374    4368   -4377    4392       6
    4374    4368    4377    4395       5    4374    4368   -4377    4395       6
    4371    4368    4374    4380       6    4371    4368    4374    4383       6
    4371    4368    4374    4386       6    4371    4368    4377    4389       6
    4371    4368    4377    4392       6    4371    4368    4377    4395       6
    4407    4398    4404    4410       5    4407    4398   -4404    4410       6
    4407    4398    4404    4413       5    4407    4398   -4404    4413       6
    4407    4398    4404    4416       5    4407    4398   -4404    4416       6
    4404    4398    4407    4419       5    4404    4398   -4407    4419       6
    4404    4398    4407    4422       5    4404    4398   -4407    4422       6
    4404    4398    4407    4425       5    4404    4398   -4407    4425       6
    4401    4398    4404    4410       6    4401    4398    4404    4413       6
    4401    4398    4404    4416       6    4401    4398    4407    4419       6
    4401    4398    4407    4422       6    4401    4398    4407    4425       6
    4437    4428    4434    4440       5    4437    4428   -4434    4440       6
    4437    4428    4434    4443       5    4437    4428   -4434    4443       6
    4437    4428    4434    4446       5    4437    4428   -4434    4446       6
    4434    4428    4437    4449       5    4434    4428   -4437    4449       6
    4434    4428    4437    4452       5    4434    4428   -4437    4452       6
    4434    4428    4437    4455       5    4434    4428   -4437    4455       6
    4431    4428    4434    4440       6    4431    4428    4434    4443       6
    4431    4428    4434    4446       6    4431    4428    4437    4449       6
    4431    4428    4437    4452       6    4431    4428    4437    4455       6
    4467    4458    4464    4470       5    4467    4458   -4464    4470       6
    4467    4458    4464    4473       5    4467    4458   -4464    4473       6
    4467    4458    4464    4476       5    4467    4458   -4464    4476       6
    4464    4458    4467    4479       5    4464    4458   -4467    4479       6
    4464    4458    4467    4482       5    4464    4458   -4467    4482       6
    4464    4458    4467    4485       5    4464    4458   -4467    4485       6
    4461    4458    4464    4470       6    4461    4458    4464    4473       6
    4461    4458    4464    4476       6    4461    4458    4467    4479       6
    4461    4458    4467    4482       6    4461    4458    4467    4485       6
    4497    4488    4494    4500       5    4497    4488   -4494    4500       6
    4497    4488    4494    4503       5    4497    4488   -4494    4503       6
    4497    4488    4494    4506       5    4497    4488   -4494    4506       6
    4494    4488    4497    4509       5    4494    4488   -4497    4509       6
    4494    4488    4497    4512       5    4494    4488   -4497    4512       6
    4494    4488    4497    4515       5    4494    4488   -4497    4515       6
    4491    4488    4494    4500       6    4491    4488    4494    4503       6
    4491    4488    4494    4506       6    4491    4488    4497    4509       6
    4491    4488    4497    4512       6    4491    4488    4497    4515       6
    4527    4518    4524    4530       5    4527    4518   -4524    4530       6
    4527    4518    4524    4533       5    4527    4518   -4524    4533       6
    4527    4518    4524    4536       5    4527    4518   -4524    4536       6
    4524    4518    4527    4539       5    4524    4518   -4527    4539       6
    4524    4518    4527    4542       5    4524    4518   -4527    4542       6
    4524    4518    4527    4545       5    4524    4518   -4527    4545       6
    4521    4518    4524    4530       6    4521    4518    4524    4533       6
    4521    4518    4524    4536       6    4521    4518    4527    4539       6
    4521    4518    4527    4542       6    4521    4518    4527    4545       6
    4557    4548    4554    4560       5    4557    4548   -4554    4560       6
    4557    4548    4554    4563       5    4557    4548   -4554    4563       6
    4557    4548    4554    4566       5    4557    4548   -4554    4566       6
    4554    4548    4557    4569       5    4554    4548   -4557    4569       6
    4554    4548    4557    4572       5    4554    4548   -4557    4572       6
    4554    4548    4557    4575       5    4554    4548   -4557    4575       6
    4551    4548    4554    4560       6    4551    4548    4554    4563       6
    4551    4548    4554    4566       6    4551    4548    4557    4569       6
    4551    4548    4557    4572       6    4551    4548    4557    4575       6
    4587    4578    4584    4590       5    4587    4578   -4584    4590       6
    4587    4578    4584    4593       5    4587    4578   -4584    4593       6
    4587    4578    4584    4596       5    4587    4578   -4584    4596       6
    4584    4578    4587    4599       5    4584    4578   -4587    4599       6
    4584    4578    4587    4602       5    4584    4578   -4587    4602       6
    4584    4578    4587    4605       5    4584    4578   -4587    4605       6
    4581    4578    4584    4590       6    4581    4578    4584    4593       6
    4581    4578    4584    4596       6    4581    4578    4587    4599       6
    4581    4578    4587    4602       6    4581    4578    4587    4605       6
    4617    4608    4614    4620       5    4617    4608   -4614    4620       6
    4617    4608    4614    4623       5    4617    4608   -4614    4623       6
    4617    4608    4614    4626       5    4617    4608   -4614    4626       6
    4614    4608    4617    4629       5    4614    4608   -4617    4629       6
    4614    4608    4617    4632       5    4614    4608   -4617    4632       6
    4614    4608    4617    4635       5    4614    4608   -4617    4635       6
    4611    4608    4614    4620       6    4611    4608    4614    4623       6
    4611    4608    4614    4626       6    4611    4608    4617    4629       6
    4611    4608    4617    4632       6    4611    4608    4617    4635       6
    4647    4638    4644    4650       5    4647    4638   -4644    4650       6
    4647    4638    4644    4653       5    4647    4638   -4644    4653       6
    4647    4638    4644    4656       5    4647    4638   -4644    4656       6
    4644    4638    4647    4659       5    4644    4638   -4647    4659       6
    4644    4638    4647    4662       5    4644    4638   -4647    4662       6
    4644    4638    4647    4665       5    4644    4638   -4647    4665       6
    4641    4638    4644    4650       6    4641    4638    4644    4653       6
    4641    4638    4644    4656       6    4641    4638    4647    4659       6
    4641    4638    4647    4662       6    4641    4638    4647    4665       6
    4677    4668    4674    4680       5    4677    4668   -4674    4680       6
    4677    4668    4674    4683       5    4677    4668   -4674    4683       6
    4677    4668    4674    4686       5    4677    4668   -4674    4686       6
    4674    4668    4677    4689       5    4674    4668   -4677    4689       6
    4674    4668    4677    4692       5    4674    4668   -4677    4692       6
    4674    4668    4677    4695       5    4674    4668   -4677    4695       6
    4671    4668    4674    4680       6    4671    4668    4674    4683       6
    4671    4668    4674    4686       6    4671    4668    4677    4689       6
    4671    4668    4677    4692       6    4671    4668    4677    4695       6
    4707    4698    4704    4710       5    4707    4698   -4704    4710       6
    4707    4698    4704    4713       5    4707    4698   -4704    4713       6
    4707    4698    4704    4716       5    4707    4698   -4704    4716       6
    4704    4698    4707    4719       5    4704    4698   -4707    4719       6
    4704    4698    4707    4722       5    4704    4698   -4707    4722       6
    4704    4698    4707    4725       5    4704    4698   -4707    4725       6
    4701    4698    4704    4710       6    4701    4698    4704    4713       6
    4701    4698    4704    4716       6    4701    4698    4707    4719       6
    4701    4698    4707    4722       6    4701    4698    4707    4725       6
    4737    4728    4734    4740       5    4737    4728   -4734    4740       6
    4737    4728    4734    4743       5    4737    4728   -4734    4743       6
    4737    4728    4734    4746       5    4737    4728   -4734    4746       6
    4734    4728    4737    4749       5    4734    4728   -4737    4749       6
    4734    4728    4737    4752       5    4734    4728   -4737    4752       6
    4734    4728    4737    4755       5    4734    4728   -4737    4755       6
    4731    4728    4734    4740       6    4731    4728    4734    4743       6
    4731    4728    4734    4746       6    4731    4728    4737    4749       6
    4731    4728    4737    4752       6    4731    4728    4737    4755       6
    4767    4758    4764    4770       5    4767    4758   -4764    4770       6
    4767    4758    4764    4773       5    4767    4758   -4764    4773       6
    4767    4758    4764    4776       5    4767    4758   -4764    4776       6
    4764    4758    4767    4779       5    4764    4758   -4767    4779       6
    4764    4758    4767    4782       5    4764    4758   -4767    4782       6
    4764    4758    4767    4785       5    4764    4758   -4767    4785       6
    4761    4758    4764    4770       6    4761    4758    4764    4773       6
    4761    4758    4764    4776       6    4761    4758    4767    4779       6
    4761    4758    4767    4782       6    4761    4758    4767    4785       6
    4797    4788    4794    4800       5    4797    4788   -4794    4800       6
    4797    4788    4794    4803       5    4797    4788   -4794    4803       6
    4797    4788    4794    4806       5    4797    4788   -4794    4806       6
    4794    4788    4797    4809       5    4794    4788   -4797    4809       6
    4794    4788    4797    4812       5    4794    4788   -4797    4812       6
    4794    4788    4797    4815       5    4794    4788   -4797    4815       6
    4791    4788    4794    4800       6    4791    4788    4794    4803       6
    4791    4788    4794    4806       6    4791    4788    4797    4809       6
    4791    4788    4797    4812       6    4791    4788    4797    4815       6
    4827    4818    4824    4830       5    4827    4818   -4824    4830       6
    4827    4818    4824    4833       5    4827    4818   -4824    4833       6
    4827    4818    4824    4836       5    4827    4818   -4824    4836       6
    4824    4818    4827    4839       5    4824    4818   -4827    4839       6
    4824    4818    4827    4842       5    4824    4818   -4827    4842       6
    4824    4818    4827    4845       5    4824    4818   -4827    4845       6
    4821    4818    4824    4830       6    4821    4818    4824    4833       6
    4821    4818    4824    4836       6    4821    4818    4827    4839       6
    4821    4818    4827    4842       6    4821    4818    4827    4845       6
    4857    4848    4854    4860       5    4857    4848   -4854    4860       6
    4857    4848    4854    4863       5    4857    4848   -4854    4863       6
    4857    4848    4854    4866       5    4857    4848   -4854    4866       6
    4854    4848    4857    4869       5    4854    4848   -4857    4869       6
    4854    4848    4857    4872       5    4854    4848   -4857    4872       6
    4854    4848    4857    4875       5    4854    4848   -4857    4875       6
    4851    4848    4854    4860       6    4851    4848    4854    4863       6
    4851    4848    4854    4866       6    4851    4848    4857    4869       6
    4851    4848    4857    4872       6    4851    4848    4857    4875       6
    4887    4878    4884    4890       5    4887    4878   -4884    4890       6
    4887    4878    4884    4893       5    4887    4878   -4884    4893       6
    4887    4878    4884    4896       5    4887    4878   -4884    4896       6
    4884    4878    4887    4899       5    4884    4878   -4887    4899       6
    4884    4878    4887    4902       5    4884    4878   -4887    4902       6
    4884    4878    4887    4905       5    4884    4878   -4887    4905       6
    4881    4878    4884    4890       6    4881    4878    4884    4893       6
    4881    4878    4884    4896       6    4881    4878    4887    4899       6
    4881    4878    4887    4902       6    4881    4878    4887    4905       6
    4917    4908    4914    4920       5    4917    4908   -4914    4920       6
    4917    4908    4914    4923       5    4917    4908   -4914    4923       6
    4917    4908    4914    4926       5    4917    4908   -4914    4926       6
    4914    4908    4917    4929       5    4914    4908   -4917    4929       6
    4914    4908    4917    4932       5    4914    4908   -4917    4932       6
    4914    4908    4917    4935       5    4914    4908   -4917    4935       6
    4911    4908    4914    4920       6    4911    4908    4914    4923       6
    4911    4908    4914    4926       6    4911    4908    4917    4929       6
    4911    4908    4917    4932       6    4911    4908    4917    4935       6
    4947    4938    4944    4950       5    4947    4938   -4944    4950       6
    4947    4938    4944    4953       5    4947    4938   -4944    4953       6
    4947    4938    4944    4956       5    4947    4938   -4944    4956       6
    4944    4938    4947    4959       5    4944    4938   -4947    4959       6
    4944    4938    4947    4962       5    4944    4938   -4947    4962       6
    4944    4938    4947    4965       5    4944    4938   -4947    4965       6
    4941    4938    4944    4950       6    4941    4938    4944    4953       6
    4941    4938    4944    4956       6    4941    4938    4947    4959       6
    4941    4938    4947    4962       6    4941    4938    4947    4965       6
    4977    4968    4974    4980       5    4977    4968   -4974    4980       6
    4977    4968    4974    4983       5    4977    4968   -4974    4983       6
    4977    4968    4974    4986       5    4977    4968   -4974    4986       6
    4974    4968    4977    4989       5    4974    4968   -4977    4989       6
    4974    4968    4977    4992       5    4974    4968   -4977    4992       6
    4974    4968    4977    4995       5    4974    4968   -4977    4995       6
    4971    4968    4974    4980       6    4971    4968    4974    4983       6
    4971    4968    4974    4986       6    4971    4968    4977    4989       6
    4971    4968    4977    4992       6    4971    4968    4977    4995       6
    5007    4998    5004    5010       5    5007    4998   -5004    5010       6
    5007    4998    5004    5013       5    5007    4998   -5004    5013       6
    5007    4998    5004    5016       5    5007    4998   -5004    5016       6
    5004    4998    5007    5019       5    5004    4998   -5007    5019       6
    5004    4998    5007    5022       5    5004    4998   -5007    5022       6
    5004    4998    5007    5025       5    5004    4998   -5007    5025       6
    5001    4998    5004    5010       6    5001    4998    5004    5013       6
    5001    4998    5004    5016       6    5001    4998    5007    5019       6
    5001    4998    5007    5022       6    5001    4998    5007    5025       6
    5037    5028    5034    5040       5    5037    5028   -5034    5040       6
    5037    5028    5034    5043       5    5037    5028   -5034    5043       6
    5037    5028    5034    5046       5    5037    5028   -5034    5046       6
    5034    5028    5037    5049       5    5034    5028   -5037    5049       6
    5034    5028    5037    5052       5    5034    5028   -5037    5052       6
    5034    5028    5037    5055       5    5034    5028   -5037    5055       6
    5031    5028    5034    5040       6    5031    5028    5034    5043       6
    5031    5028    5034    5046       6    5031    5028    5037    5049       6
    5031    5028    5037    5052       6    5031    5028    5037    5055       6
    5067    5058    5064    5070       5    5067    5058   -5064    5070       6
    5067    5058    5064    5073       5    5067    5058   -5064    5073       6
    5067    5058    5064    5076       5    5067    5058   -5064    5076       6
    5064    5058    5067    5079       5    5064    5058   -5067    5079       6
    5064    5058    5067    5082       5    5064    5058   -5067    5082       6
    5064    5058    5067    5085       5    5064    5058   -5067    5085       6
    5061    5058    5064    5070       6    5061    5058    5064    5073       6
    5061    5058    5064    5076       6    5061    5058    5067    5079       6
    5061    5058    5067    5082       6    5061    5058    5067    5085       6
    5097    5088    5094    5100       5    5097    5088   -5094    5100       6
    5097    5088    5094    5103       5    5097    5088   -5094    5103       6
    5097    5088    5094    5106       5    5097    5088   -5094    5106       6
    5094    5088    5097    5109       5    5094    5088   -5097    5109       6
    5094    5088    5097    5112       5    5094    5088   -5097    5112       6
    5094    5088    5097    5115       5    5094    5088   -5097    5115       6
    5091    5088    5094    5100       6    5091    5088    5094    5103       6
    5091    5088    5094    5106       6    5091    5088    5097    5109       6
    5091    5088    5097    5112       6    5091    5088    5097    5115       6
    5127    5118    5124    5130       5    5127    5118   -5124    5130       6
    5127    5118    5124    5133       5    5127    5118   -5124    5133       6
    5127    5118    5124    5136       5    5127    5118   -5124    5136       6
    5124    5118    5127    5139       5    5124    5118   -5127    5139       6
    5124    5118    5127    5142       5    5124    5118   -5127    5142       6
    5124    5118    5127    5145       5    5124    5118   -5127    5145       6
    5121    5118    5124    5130       6    5121    5118    5124    5133       6
    5121    5118    5124    5136       6    5121    5118    5127    5139       6
    5121    5118    5127    5142       6    5121    5118    5127    5145       6
    5157    5148    5154    5160       5    5157    5148   -5154    5160       6
    5157    5148    5154    5163       5    5157    5148   -5154    5163       6
    5157    5148    5154    5166       5    5157    5148   -5154    5166       6
    5154    5148    5157    5169       5    5154    5148   -5157    5169       6
    5154    5148    5157    5172       5    5154    5148   -5157    5172       6
    5154    5148    5157    5175       5    5154    5148   -5157    5175       6
    5151    5148    5154    5160       6    5151    5148    5154    5163       6
    5151    5148    5154    5166       6    5151    5148    5157    5169       6
    5151    5148    5157    5172       6    5151    5148    5157    5175       6
    5187    5178    5184    5190       5    5187    5178   -5184    5190       6
    5187    5178    5184    5193       5    5187    5178   -5184    5193       6
    5187    5178    5184    5196       5    5187    5178   -5184    5196       6
    5184    5178    5187    5199       5    5184    5178   -5187    5199       6
    5184    5178    5187    5202       5    5184    5178   -5187    5202       6
    5184    5178    5187    5205       5    5184    5178   -5187    5205       6
    5181    5178    5184    5190       6    5181    5178    5184    5193       6
    5181    5178    5184    5196       6    5181    5178    5187    5199       6
    5181    5178    5187    5202       6    5181    5178    5187    5205       6
    5217    5208    5214    5220       5    5217    5208   -5214    5220       6
    5217    5208    5214    5223       5    5217    5208   -5214    5223       6
    5217    5208    5214    5226       5    5217    5208   -5214    5226       6
    5214    5208    5217    5229       5    5214    5208   -5217    5229       6
    5214    5208    5217    5232       5    5214    5208   -5217    5232       6
    5214    5208    5217    5235       5    5214    5208   -5217    5235       6
    5211    5208    5214    5220       6    5211    5208    5214    5223       6
    5211    5208    5214    5226       6    5211    5208    5217    5229       6
    5211    5208    5217    5232       6    5211    5208    5217    5235       6
    5247    5238    5244    5250       5    5247    5238   -5244    5250       6
    5247    5238    5244    5253       5    5247    5238   -5244    5253       6
    5247    5238    5244    5256       5    5247    5238   -5244    5256       6
    5244    5238    5247    5259       5    5244    5238   -5247    5259       6
    5244    5238    5247    5262       5    5244    5238   -5247    5262       6
    5244    5238    5247    5265       5    5244    5238   -5247    5265       6
    5241    5238    5244    5250       6    5241    5238    5244    5253       6
    5241    5238    5244    5256       6    5241    5238    5247    5259       6
    5241    5238    5247    5262       6    5241    5238    5247    5265       6
    5277    5268    5274    5280       5    5277    5268   -5274    5280       6
    5277    5268    5274    5283       5    5277    5268   -5274    5283       6
    5277    5268    5274    5286       5    5277    5268   -5274    5286       6
    5274    5268    5277    5289       5    5274    5268   -5277    5289       6
    5274    5268    5277    5292       5    5274    5268   -5277    5292       6
    5274    5268    5277    5295       5    5274    5268   -5277    5295       6
    5271    5268    5274    5280       6    5271    5268    5274    5283       6
    5271    5268    5274    5286       6    5271    5268    5277    5289       6
    5271    5268    5277    5292       6    5271    5268    5277    5295       6
    5307    5298    5304    5310       5    5307    5298   -5304    5310       6
    5307    5298    5304    5313       5    5307    5298   -5304    5313       6
    5307    5298    5304    5316       5    5307    5298   -5304    5316       6
    5304    5298    5307    5319       5    5304    5298   -5307    5319       6
    5304    5298    5307    5322       5    5304    5298   -5307    5322       6
    5304    5298    5307    5325       5    5304    5298   -5307    5325       6
    5301    5298    5304    5310       6    5301    5298    5304    5313       6
    5301    5298    5304    5316       6    5301    5298    5307    5319       6
    5301    5298    5307    5322       6    5301    5298    5307    5325       6
    5337    5328    5334    5340       5    5337    5328   -5334    5340       6
    5337    5328    5334    5343       5    5337    5328   -5334    5343       6
    5337    5328    5334    5346       5    5337    5328   -5334    5346       6
    5334    5328    5337    5349       5    5334    5328   -5337    5349       6
    5334    5328    5337    5352       5    5334    5328   -5337    5352       6
    5334    5328    5337    5355       5    5334    5328   -5337    5355       6
    5331    5328    5334    5340       6    5331    5328    5334    5343       6
    5331    5328    5334    5346       6    5331    5328    5337    5349       6
    5331    5328    5337    5352       6    5331    5328    5337    5355       6
    5367    5358    5364    5370       5    5367    5358   -5364    5370       6
    5367    5358    5364    5373       5    5367    5358   -5364    5373       6
    5367    5358    5364    5376       5    5367    5358   -5364    5376       6
    5364    5358    5367    5379       5    5364    5358   -5367    5379       6
    5364    5358    5367    5382       5    5364    5358   -5367    5382       6
    5364    5358    5367    5385       5    5364    5358   -5367    5385       6
    5361    5358    5364    5370       6    5361    5358    5364    5373       6
    5361    5358    5364    5376       6    5361    5358    5367    5379       6
    5361    5358    5367    5382       6    5361    5358    5367    5385       6
    5397    5388    5394    5400       5    5397    5388   -5394    5400       6
    5397    5388    5394    5403       5    5397    5388   -5394    5403       6
    5397    5388    5394    5406       5    5397    5388   -5394    5406       6
    5394    5388    5397    5409       5    5394    5388   -5397    5409       6
    5394    5388    5397    5412       5    5394    5388   -5397    5412       6
    5394    5388    5397    5415       5    5394    5388   -5397    5415       6
    5391    5388    5394    5400       6    5391    5388    5394    5403       6
    5391    5388    5394    5406       6    5391    5388    5397    5409       6
    5391    5388    5397    5412       6    5391    5388    5397    5415       6
    5427    5418    5424    5430       5    5427    5418   -5424    5430       6
    5427    5418    5424    5433       5    5427    5418   -5424    5433       6
    5427    5418    5424    5436       5    5427    5418   -5424    5436       6
    5424    5418    5427    5439       5    5424    5418   -5427    5439       6
    5424    5418    5427    5442       5    5424    5418   -5427    5442       6
    5424    5418    5427    5445       5    5424    5418   -5427    5445       6
    5421    5418    5424    5430       6    5421    5418    5424    5433       6
    5421    5418    5424    5436       6    5421    5418    5427    5439       6
    5421    5418    5427    5442       6    5421    5418    5427    5445       6
    5457    5448    5454    5460       5    5457    5448   -5454    5460       6
    5457    5448    5454    5463       5    5457    5448   -5454    5463       6
    5457    5448    5454    5466       5    5457    5448   -5454    5466       6
    5454    5448    5457    5469       5    5454    5448   -5457    5469       6
    5454    5448    5457    5472       5    5454    5448   -5457    5472       6
    5454    5448    5457    5475       5    5454    5448   -5457    5475       6
    5451    5448    5454    5460       6    5451    5448    5454    5463       6
    5451    5448    5454    5466       6    5451    5448    5457    5469       6
    5451    5448    5457    5472       6    5451    5448    5457    5475       6
    5487    5478    5484    5490       5    5487    5478   -5484    5490       6
    5487    5478    5484    5493       5    5487    5478   -5484    5493       6
    5487    5478    5484    5496       5    5487    5478   -5484    5496       6
    5484    5478    5487    5499       5    5484    5478   -5487    5499       6
    5484    5478    5487    5502       5    5484    5478   -5487    5502       6
    5484    5478    5487    5505       5    5484    5478   -5487    5505       6
    5481    5478    5484    5490       6    5481    5478    5484    5493       6
    5481    5478    5484    5496       6    5481    5478    5487    5499       6
    5481    5478    5487    5502       6    5481    5478    5487    5505       6
    5517    5508    5514    5520       5    5517    5508   -5514    5520       6
    5517    5508    5514    5523       5    5517    5508   -5514    5523       6
    5517    5508    5514    5526       5    5517    5508   -5514    5526       6
    5514    5508    5517    5529       5    5514    5508   -5517    5529       6
    5514    5508    5517    5532       5    5514    5508   -5517    5532       6
    5514    5508    5517    5535       5    5514    5508   -5517    5535       6
    5511    5508    5514    5520       6    5511    5508    5514    5523       6
    5511    5508    5514    5526       6    5511    5508    5517    5529       6
    5511    5508    5517    5532       6    5511    5508    5517    5535       6
    5547    5538    5544    5550       5    5547    5538   -5544    5550       6
    5547    5538    5544    5553       5    5547    5538   -5544    5553       6
    5547    5538    5544    5556       5    5547    5538   -5544    5556       6
    5544    5538    5547    5559       5    5544    5538   -5547    5559       6
    5544    5538    5547    5562       5    5544    5538   -5547    5562       6
    5544    5538    5547    5565       5    5544    5538   -5547    5565       6
    5541    5538    5544    5550       6    5541    5538    5544    5553       6
    5541    5538    5544    5556       6    5541    5538    5547    5559       6
    5541    5538    5547    5562       6    5541    5538    5547    5565       6
    5577    5568    5574    5580       5    5577    5568   -5574    5580       6
    5577    5568    5574    5583       5    5577    5568   -5574    5583       6
    5577    5568    5574    5586       5    5577    5568   -5574    5586       6
    5574    5568    5577    5589       5    5574    5568   -5577    5589       6
    5574    5568    5577    5592       5    5574    5568   -5577    5592       6
    5574    5568    5577    5595       5    5574    5568   -5577    5595       6
    5571    5568    5574    5580       6    5571    5568    5574    5583       6
    5571    5568    5574    5586       6    5571    5568    5577    5589       6
    5571    5568    5577    5592       6    5571    5568    5577    5595       6
    5607    5598    5604    5610       5    5607    5598   -5604    5610       6
    5607    5598    5604    5613       5    5607    5598   -5604    5613       6
    5607    5598    5604    5616       5    5607    5598   -5604    5616       6
    5604    5598    5607    5619       5    5604    5598   -5607    5619       6
    5604    5598    5607    5622       5    5604    5598   -5607    5622       6
    5604    5598    5607    5625       5    5604    5598   -5607    5625       6
    5601    5598    5604    5610       6    5601    5598    5604    5613       6
    5601    5598    5604    5616       6    5601    5598    5607    5619       6
    5601    5598    5607    5622       6    5601    5598    5607    5625       6
    5637    5628    5634    5640       5    5637    5628   -5634    5640       6
    5637    5628    5634    5643       5    5637    5628   -5634    5643       6
    5637    5628    5634    5646       5    5637    5628   -5634    5646       6
    5634    5628    5637    5649       5    5634    5628   -5637    5649       6
    5634    5628    5637    5652       5    5634    5628   -5637    5652       6
    5634    5628    5637    5655       5    5634    5628   -5637    5655       6
    5631    5628    5634    5640       6    5631    5628    5634    5643       6
    5631    5628    5634    5646       6    5631    5628    5637    5649       6
    5631    5628    5637    5652       6    5631    5628    5637    5655       6
    5667    5658    5664    5670       5    5667    5658   -5664    5670       6
    5667    5658    5664    5673       5    5667    5658   -5664    5673       6
    5667    5658    5664    5676       5    5667    5658   -5664    5676       6
    5664    5658    5667    5679       5    5664    5658   -5667    5679       6
    5664    5658    5667    5682       5    5664    5658   -5667    5682       6
    5664    5658    5667    5685       5    5664    5658   -5667    5685       6
    5661    5658    5664    5670       6    5661    5658    5664    5673       6
    5661    5658    5664    5676       6    5661    5658    5667    5679       6
    5661    5658    5667    5682       6    5661    5658    5667    5685       6
    5697    5688    5694    5700       5    5697    5688   -5694    5700       6
    5697    5688    5694    5703       5    5697    5688   -5694    5703       6
    5697    5688    5694    5706       5    5697    5688   -5694    5706       6
    5694    5688    5697    5709       5    5694    5688   -5697    5709       6
    5694    5688    5697    5712       5    5694    5688   -5697    5712       6
    5694    5688    5697    5715       5    5694    5688   -5697    5715       6
    5691    5688    5694    5700       6    5691    5688    5694    5703       6
    5691    5688    5694    5706       6    5691    5688    5697    5709       6
    5691    5688    5697    5712       6    5691    5688    5697    5715       6
    5727    5718    5724    5730       5    5727    5718   -5724    5730       6
    5727    5718    5724    5733       5    5727    5718   -5724    5733       6
    5727    5718    5724    5736       5    5727    5718   -5724    5736       6
    5724    5718    5727    5739       5    5724    5718   -5727    5739       6
    5724    5718    5727    5742       5    5724    5718   -5727    5742       6
    5724    5718    5727    5745       5    5724    5718   -5727    5745       6
    5721    5718    5724    5730       6    5721    5718    5724    5733       6
    5721    5718    5724    5736       6    5721    5718    5727    5739       6
    5721    5718    5727    5742       6    5721    5718    5727    5745       6
    5757    5748    5754    5760       5    5757    5748   -5754    5760       6
    5757    5748    5754    5763       5    5757    5748   -5754    5763       6
    5757    5748    5754    5766       5    5757    5748   -5754    5766       6
    5754    5748    5757    5769       5    5754    5748   -5757    5769       6
    5754    5748    5757    5772       5    5754    5748   -5757    5772       6
    5754    5748    5757    5775       5    5754    5748   -5757    5775       6
    5751    5748    5754    5760       6    5751    5748    5754    5763       6
    5751    5748    5754    5766       6    5751    5748    5757    5769       6
    5751    5748    5757    5772       6    5751    5748    5757    5775       6
    5787    5778    5784    5790       5    5787    5778   -5784    5790       6
    5787    5778    5784    5793       5    5787    5778   -5784    5793       6
    5787    5778    5784    5796       5    5787    5778   -5784    5796       6
    5784    5778    5787    5799       5    5784    5778   -5787    5799       6
    5784    5778    5787    5802       5    5784    5778   -5787    5802       6
    5784    5778    5787    5805       5    5784    5778   -5787    5805       6
    5781    5778    5784    5790       6    5781    5778    5784    5793       6
    5781    5778    5784    5796       6    5781    5778    5787    5799       6
    5781    5778    5787    5802       6    5781    5778    5787    5805       6
    5817    5808    5814    5820       5    5817    5808   -5814    5820       6
    5817    5808    5814    5823       5    5817    5808   -5814    5823       6
    5817    5808    5814    5826       5    5817    5808   -5814    5826       6
    5814    5808    5817    5829       5    5814    5808   -5817    5829       6
    5814    5808    5817    5832       5    5814    5808   -5817    5832       6
    5814    5808    5817    5835       5    5814    5808   -5817    5835       6
    5811    5808    5814    5820       6    5811    5808    5814    5823       6
    5811    5808    5814    5826       6    5811    5808    5817    5829       6
    5811    5808    5817    5832       6    5811    5808    5817    5835       6
    5847    5838    5844    5850       5    5847    5838   -5844    5850       6
    5847    5838    5844    5853       5    5847    5838   -5844    5853       6
    5847    5838    5844    5856       5    5847    5838   -5844    5856       6
    5844    5838    5847    5859       5    5844    5838   -5847    5859       6
    5844    5838    5847    5862       5    5844    5838   -5847    5862       6
    5844    5838    5847    5865       5    5844    5838   -5847    5865       6
    5841    5838    5844    5850       6    5841    5838    5844    5853       6
    5841    5838    5844    5856       6    5841    5838    5847    5859       6
    5841    5838    5847    5862       6    5841    5838    5847    5865       6
    5877    5868    5874    5880       5    5877    5868   -5874    5880       6
    5877    5868    5874    5883       5    5877    5868   -5874    5883       6
    5877    5868    5874    5886       5    5877    5868   -5874    5886       6
    5874    5868    5877    5889       5    5874    5868   -5877    5889       6
    5874    5868    5877    5892       5    5874    5868   -5877    5892       6
    5874    5868    5877    5895       5    5874    5868   -5877    5895       6
    5871    5868    5874    5880       6    5871    5868    5874    5883       6
    5871    5868    5874    5886       6    5871    5868    5877    5889       6
    5871    5868    5877    5892       6    5871    5868    5877    5895       6
    5907    5898    5904    5910       5    5907    5898   -5904    5910       6
    5907    5898    5904    5913       5    5907    5898   -5904    5913       6
    5907    5898    5904    5916       5    5907    5898   -5904    5916       6
    5904    5898    5907    5919       5    5904    5898   -5907    5919       6
    5904    5898    5907    5922       5    5904    5898   -5907    5922       6
    5904    5898    5907    5925       5    5904    5898   -5907    5925       6
    5901    5898    5904    5910       6    5901    5898    5904    5913       6
    5901    5898    5904    5916       6    5901    5898    5907    5919       6
    5901    5898    5907    5922       6    5901    5898    5907    5925       6
    5937    5928    5934    5940       5    5937    5928   -5934    5940       6
    5937    5928    5934    5943       5    5937    5928   -5934    5943       6
    5937    5928    5934    5946       5    5937    5928   -5934    5946       6
    5934    5928    5937    5949       5    5934    5928   -5937    5949       6
    5934    5928    5937    5952       5    5934    5928   -5937    5952       6
    5934    5928    5937    5955       5    5934    5928   -5937    5955       6
    5931    5928    5934    5940       6    5931    5928    5934    5943       6
    5931    5928    5934    5946       6    5931    5928    5937    5949       6
    5931    5928    5937    5952       6    5931    5928    5937    5955       6
    5967    5958    5964    5970       5    5967    5958   -5964    5970       6
    5967    5958    5964    5973       5    5967    5958   -5964    5973       6
    5967    5958    5964    5976       5    5967    5958   -5964    5976       6
    5964    5958    5967    5979       5    5964    5958   -5967    5979       6
    5964    5958    5967    5982       5    5964    5958   -5967    5982       6
    5964    5958    5967    5985       5    5964    5958   -5967    5985       6
    5961    5958    5964    5970       6    5961    5958    5964    5973       6
    5961    5958    5964    5976       6    5961    5958    5967    5979       6
    5961    5958    5967    5982       6    5961    5958    5967    5985       6
    5997    5988    5994    6000       5    5997    5988   -5994    6000       6
    5997    5988    5994    6003       5    5997    5988   -5994    6003       6
    5997    5988    5994    6006       5    5997    5988   -5994    6006       6
    5994    5988    5997    6009       5    5994    5988   -5997    6009       6
    5994    5988    5997    6012       5    5994    5988   -5997    6012       6
    5994    5988    5997    6015       5    5994    5988   -5997    6015       6
    5991    5988    5994    6000       6    5991    5988    5994    6003       6
    5991    5988    5994    6006       6    5991    5988    5997    6009       6
    5991    5988    5997    6012       6    5991    5988    5997    6015       6
    6027    6018    6024    6030       5    6027    6018   -6024    6030       6
    6027    6018    6024    6033       5    6027    6018   -6024    6033       6
    6027    6018    6024    6036       5    6027    6018   -6024    6036       6
    6024    6018    6027    6039       5    6024    6018   -6027    6039       6
    6024    6018    6027    6042       5    6024    6018   -6027    6042       6
    6024    6018    6027    6045       5    6024    6018   -6027    6045       6
    6021    6018    6024    6030       6    6021    6018    6024    6033       6
    6021    6018    6024    6036       6    6021    6018    6027    6039       6
    6021    6018    6027    6042       6    6021    6018    6027    6045       6
    6057    6048    6054    6060       5    6057    6048   -6054    6060       6
    6057    6048    6054    6063       5    6057    6048   -6054    6063       6
    6057    6048    6054    6066       5    6057    6048   -6054    6066       6
    6054    6048    6057    6069       5    6054    6048   -6057    6069       6
    6054    6048    6057    6072       5    6054    6048   -6057    6072       6
    6054    6048    6057    6075       5    6054    6048   -6057    6075       6
    6051    6048    6054    6060       6    6051    6048    6054    6063       6
    6051    6048    6054    6066       6    6051    6048    6057    6069       6
    6051    6048    6057    6072       6    6051    6048    6057    6075       6
    6087    6078    6084    6090       5    6087    6078   -6084    6090       6
    6087    6078    6084    6093       5    6087    6078   -6084    6093       6
    6087    6078    6084    6096       5    6087    6078   -6084    6096       6
    6084    6078    6087    6099       5    6084    6078   -6087    6099       6
    6084    6078    6087    6102       5    6084    6078   -6087    6102       6
    6084    6078    6087    6105       5    6084    6078   -6087    6105       6
    6081    6078    6084    6090       6    6081    6078    6084    6093       6
    6081    6078    6084    6096       6    6081    6078    6087    6099       6
    6081    6078    6087    6102       6    6081    6078    6087    6105       6
    6117    6108    6114    6120       5    6117    6108   -6114    6120       6
    6117    6108    6114    6123       5    6117    6108   -6114    6123       6
    6117    6108    6114    6126       5    6117    6108   -6114    6126       6
    6114    6108    6117    6129       5    6114    6108   -6117    6129       6
    6114    6108    6117    6132       5    6114    6108   -6117    6132       6
    6114    6108    6117    6135       5    6114    6108   -6117    6135       6
    6111    6108    6114    6120       6    6111    6108    6114    6123       6
    6111    6108    6114    6126       6    6111    6108    6117    6129       6
    6111    6108    6117    6132       6    6111    6108    6117    6135       6
    6147    6138    6144    6150       5    6147    6138   -6144    6150       6
    6147    6138    6144    6153       5    6147    6138   -6144    6153       6
    6147    6138    6144    6156       5    6147    6138   -6144    6156       6
    6144    6138    6147    6159       5    6144    6138   -6147    6159       6
    6144    6138    6147    6162       5    6144    6138   -6147    6162       6
    6144    6138    6147    6165       5    6144    6138   -6147    6165       6
    6141    6138    6144    6150       6    6141    6138    6144    6153       6
    6141    6138    6144    6156       6    6141    6138    6147    6159       6
    6141    6138    6147    6162       6    6141    6138    6147    6165       6
    6177    6168    6174    6180       5    6177    6168   -6174    6180       6
    6177    6168    6174    6183       5    6177    6168   -6174    6183       6
    6177    6168    6174    6186       5    6177    6168   -6174    6186       6
    6174    6168    6177    6189       5    6174    6168   -6177    6189       6
    6174    6168    6177    6192       5    6174    6168   -6177    6192       6
    6174    6168    6177    6195       5    6174    6168   -6177    6195       6
    6171    6168    6174    6180       6    6171    6168    6174    6183       6
    6171    6168    6174    6186       6    6171    6168    6177    6189       6
    6171    6168    6177    6192       6    6171    6168    6177    6195       6
    6207    6198    6204    6210       5    6207    6198   -6204    6210       6
    6207    6198    6204    6213       5    6207    6198   -6204    6213       6
    6207    6198    6204    6216       5    6207    6198   -6204    6216       6
    6204    6198    6207    6219       5    6204    6198   -6207    6219       6
    6204    6198    6207    6222       5    6204    6198   -6207    6222       6
    6204    6198    6207    6225       5    6204    6198   -6207    6225       6
    6201    6198    6204    6210       6    6201    6198    6204    6213       6
    6201    6198    6204    6216       6    6201    6198    6207    6219       6
    6201    6198    6207    6222       6    6201    6198    6207    6225       6
    6237    6228    6234    6240       5    6237    6228   -6234    6240       6
    6237    6228    6234    6243       5    6237    6228   -6234    6243       6
    6237    6228    6234    6246       5    6237    6228   -6234    6246       6
    6234    6228    6237    6249       5    6234    6228   -6237    6249       6
    6234    6228    6237    6252       5    6234    6228   -6237    6252       6
    6234    6228    6237    6255       5    6234    6228   -6237    6255       6
    6231    6228    6234    6240       6    6231    6228    6234    6243       6
    6231    6228    6234    6246       6    6231    6228    6237    6249       6
    6231    6228    6237    6252       6    6231    6228    6237    6255       6
    6267    6258    6264    6270       5    6267    6258   -6264    6270       6
    6267    6258    6264    6273       5    6267    6258   -6264    6273       6
    6267    6258    6264    6276       5    6267    6258   -6264    6276       6
    6264    6258    6267    6279       5    6264    6258   -6267    6279       6
    6264    6258    6267    6282       5    6264    6258   -6267    6282       6
    6264    6258    6267    6285       5    6264    6258   -6267    6285       6
    6261    6258    6264    6270       6    6261    6258    6264    6273       6
    6261    6258    6264    6276       6    6261    6258    6267    6279       6
    6261    6258    6267    6282       6    6261    6258    6267    6285       6
    6297    6288    6294    6300       5    6297    6288   -6294    6300       6
    6297    6288    6294    6303       5    6297    6288   -6294    6303       6
    6297    6288    6294    6306       5    6297    6288   -6294    6306       6
    6294    6288    6297    6309       5    6294    6288   -6297    6309       6
    6294    6288    6297    6312       5    6294    6288   -6297    6312       6
    6294    6288    6297    6315       5    6294    6288   -6297    6315       6
    6291    6288    6294    6300       6    6291    6288    6294    6303       6
    6291    6288    6294    6306       6    6291    6288    6297    6309       6
    6291    6288    6297    6312       6    6291    6288    6297    6315       6
    6327    6318    6324    6330       5    6327    6318   -6324    6330       6
    6327    6318    6324    6333       5    6327    6318   -6324    6333       6
    6327    6318    6324    6336       5    6327    6318   -6324    6336       6
    6324    6318    6327    6339       5    6324    6318   -6327    6339       6
    6324    6318    6327    6342       5    6324    6318   -6327    6342       6
    6324    6318    6327    6345       5    6324    6318   -6327    6345       6
    6321    6318    6324    6330       6    6321    6318    6324    6333       6
    6321    6318    6324    6336       6    6321    6318    6327    6339       6
    6321    6318    6327    6342       6    6321    6318    6327    6345       6
    6357    6348    6354    6360       5    6357    6348   -6354    6360       6
    6357    6348    6354    6363       5    6357    6348   -6354    6363       6
    6357    6348    6354    6366       5    6357    6348   -6354    6366       6
    6354    6348    6357    6369       5    6354    6348   -6357    6369       6
    6354    6348    6357    6372       5    6354    6348   -6357    6372       6
    6354    6348    6357    6375       5    6354    6348   -6357    6375       6
    6351    6348    6354    6360       6    6351    6348    6354    6363       6
    6351    6348    6354    6366       6    6351    6348    6357    6369       6
    6351    6348    6357    6372       6    6351    6348    6357    6375       6
    6387    6378    6384    6390       5    6387    6378   -6384    6390       6
    6387    6378    6384    6393       5    6387    6378   -6384    6393       6
    6387    6378    6384    6396       5    6387    6378   -6384    6396       6
    6384    6378    6387    6399       5    6384    6378   -6387    6399       6
    6384    6378    6387    6402       5    6384    6378   -6387    6402       6
    6384    6378    6387    6405       5    6384    6378   -6387    6405       6
    6381    6378    6384    6390       6    6381    6378    6384    6393       6
    6381    6378    6384    6396       6    6381    6378    6387    6399       6
    6381    6378    6387    6402       6    6381    6378    6387    6405       6
    6417    6408    6414    6420       5    6417    6408   -6414    6420       6
    6417    6408    6414    6423       5    6417    6408   -6414    6423       6
    6417    6408    6414    6426       5    6417    6408   -6414    6426       6
    6414    6408    6417    6429       5    6414    6408   -6417    6429       6
    6414    6408    6417    6432       5    6414    6408   -6417    6432       6
    6414    6408    6417    6435       5    6414    6408   -6417    6435       6
    6411    6408    6414    6420       6    6411    6408    6414    6423       6
    6411    6408    6414    6426       6    6411    6408    6417    6429       6
    6411    6408    6417    6432       6    6411    6408    6417    6435       6
    6447    6438    6444    6450       5    6447    6438   -6444    6450       6
    6447    6438    6444    6453       5    6447    6438   -6444    6453       6
    6447    6438    6444    6456       5    6447    6438   -6444    6456       6
    6444    6438    6447    6459       5    6444    6438   -6447    6459       6
    6444    6438    6447    6462       5    6444    6438   -6447    6462       6
    6444    6438    6447    6465       5    6444    6438   -6447    6465       6
    6441    6438    6444    6450       6    6441    6438    6444    6453       6
    6441    6438    6444    6456       6    6441    6438    6447    6459       6
    6441    6438    6447    6462       6    6441    6438    6447    6465       6
    6477    6468    6474    6480       5    6477    6468   -6474    6480       6
    6477    6468    6474    6483       5    6477    6468   -6474    6483       6
    6477    6468    6474    6486       5    6477    6468   -6474    6486       6
    6474    6468    6477    6489       5    6474    6468   -6477    6489       6
    6474    6468    6477    6492       5    6474    6468   -6477    6492       6
    6474    6468    6477    6495       5    6474    6468   -6477    6495       6
    6471    6468    6474    6480       6    6471    6468    6474    6483       6
    6471    6468    6474    6486       6    6471    6468    6477    6489       6
    6471    6468    6477    6492       6    6471    6468    6477    6495       6
    6507    6498    6504    6510       5    6507    6498   -6504    6510       6
    6507    6498    6504    6513       5    6507    6498   -6504    6513       6
    6507    6498    6504    6516       5    6507    6498   -6504    6516       6
    6504    6498    6507    6519       5    6504    6498   -6507    6519       6
    6504    6498    6507    6522       5    6504    6498   -6507    6522       6
    6504    6498    6507    6525       5    6504    6498   -6507    6525       6
    6501    6498    6504    6510       6    6501    6498    6504    6513       6
    6501    6498    6504    6516       6    6501    6498    6507    6519       6
    6501    6498    6507    6522       6    6501    6498    6507    6525       6
    6537    6528    6534    6540       5    6537    6528   -6534    6540       6
    6537    6528    6534    6543       5    6537    6528   -6534    6543       6
    6537    6528    6534    6546       5    6537    6528   -6534    6546       6
    6534    6528    6537    6549       5    6534    6528   -6537    6549       6
    6534    6528    6537    6552       5    6534    6528   -6537    6552       6
    6534    6528    6537    6555       5    6534    6528   -6537    6555       6
    6531    6528    6534    6540       6    6531    6528    6534    6543       6
    6531    6528    6534    6546       6    6531    6528    6537    6549       6
    6531    6528    6537    6552       6    6531    6528    6537    6555       6
    6567    6558    6564    6570       5    6567    6558   -6564    6570       6
    6567    6558    6564    6573       5    6567    6558   -6564    6573       6
    6567    6558    6564    6576       5    6567    6558   -6564    6576       6
    6564    6558    6567    6579       5    6564    6558   -6567    6579       6
    6564    6558    6567    6582       5    6564    6558   -6567    6582       6
    6564    6558    6567    6585       5    6564    6558   -6567    6585       6
    6561    6558    6564    6570       6    6561    6558    6564    6573       6
    6561    6558    6564    6576       6    6561    6558    6567    6579       6
    6561    6558    6567    6582       6    6561    6558    6567    6585       6
    6597    6588    6594    6600       5    6597    6588   -6594    6600       6
    6597    6588    6594    6603       5    6597    6588   -6594    6603       6
    6597    6588    6594    6606       5    6597    6588   -6594    6606       6
    6594    6588    6597    6609       5    6594    6588   -6597    6609       6
    6594    6588    6597    6612       5    6594    6588   -6597    6612       6
    6594    6588    6597    6615       5    6594    6588   -6597    6615       6
    6591    6588    6594    6600       6    6591    6588    6594    6603       6
    6591    6588    6594    6606       6    6591    6588    6597    6609       6
    6591    6588    6597    6612       6    6591    6588    6597    6615       6
    6627    6618    6624    6630       5    6627    6618   -6624    6630       6
    6627    6618    6624    6633       5    6627    6618   -6624    6633       6
    6627    6618    6624    6636       5    6627    6618   -6624    6636       6
    6624    6618    6627    6639       5    6624    6618   -6627    6639       6
    6624    6618    6627    6642       5    6624    6618   -6627    6642       6
    6624    6618    6627    6645       5    6624    6618   -6627    6645       6
    6621    6618    6624    6630       6    6621    6618    6624    6633       6
    6621    6618    6624    6636       6    6621    6618    6627    6639       6
    6621    6618    6627    6642       6    6621    6618    6627    6645       6
    6657    6648    6654    6660       5    6657    6648   -6654    6660       6
    6657    6648    6654    6663       5    6657    6648   -6654    6663       6
    6657    6648    6654    6666       5    6657    6648   -6654    6666       6
    6654    6648    6657    6669       5    6654    6648   -6657    6669       6
    6654    6648    6657    6672       5    6654    6648   -6657    6672       6
    6654    6648    6657    6675       5    6654    6648   -6657    6675       6
    6651    6648    6654    6660       6    6651    6648    6654    6663       6
    6651    6648    6654    6666       6    6651    6648    6657    6669       6
    6651    6648    6657    6672       6    6651    6648    6657    6675       6
    6687    6678    6684    6690       5    6687    6678   -6684    6690       6
    6687    6678    6684    6693       5    6687    6678   -6684    6693       6
    6687    6678    6684    6696       5    6687    6678   -6684    6696       6
    6684    6678    6687    6699       5    6684    6678   -6687    6699       6
    6684    6678    6687    6702       5    6684    6678   -6687    6702       6
    6684    6678    6687    6705       5    6684    6678   -6687    6705       6
    6681    6678    6684    6690       6    6681    6678    6684    6693       6
    6681    6678    6684    6696       6    6681    6678    6687    6699       6
    6681    6678    6687    6702       6    6681    6678    6687    6705       6
    6717    6708    6714    6720       5    6717    6708   -6714    6720       6
    6717    6708    6714    6723       5    6717    6708   -6714    6723       6
    6717    6708    6714    6726       5    6717    6708   -6714    6726       6
    6714    6708    6717    6729       5    6714    6708   -6717    6729       6
    6714    6708    6717    6732       5    6714    6708   -6717    6732       6
    6714    6708    6717    6735       5    6714    6708   -6717    6735       6
    6711    6708    6714    6720       6    6711    6708    6714    6723       6
    6711    6708    6714    6726       6    6711    6708    6717    6729       6
    6711    6708    6717    6732       6    6711    6708    6717    6735       6
    6747    6738    6744    6750       5    6747    6738   -6744    6750       6
    6747    6738    6744    6753       5    6747    6738   -6744    6753       6
    6747    6738    6744    6756       5    6747    6738   -6744    6756       6
    6744    6738    6747    6759       5    6744    6738   -6747    6759       6
    6744    6738    6747    6762       5    6744    6738   -6747    6762       6
    6744    6738    6747    6765       5    6744    6738   -6747    6765       6
    6741    6738    6744    6750       6    6741    6738    6744    6753       6
    6741    6738    6744    6756       6    6741    6738    6747    6759       6
    6741    6738    6747    6762       6    6741    6738    6747    6765       6
    6777    6768    6774    6780       5    6777    6768   -6774    6780       6
    6777    6768    6774    6783       5    6777    6768   -6774    6783       6
    6777    6768    6774    6786       5    6777    6768   -6774    6786       6
    6774    6768    6777    6789       5    6774    6768   -6777    6789       6
    6774    6768    6777    6792       5    6774    6768   -6777    6792       6
    6774    6768    6777    6795       5    6774    6768   -6777    6795       6
    6771    6768    6774    6780       6    6771    6768    6774    6783       6
    6771    6768    6774    6786       6    6771    6768    6777    6789       6
    6771    6768    6777    6792       6    6771    6768    6777    6795       6
    6807    6798    6804    6810       5    6807    6798   -6804    6810       6
    6807    6798    6804    6813       5    6807    6798   -6804    6813       6
    6807    6798    6804    6816       5    6807    6798   -6804    6816       6
    6804    6798    6807    6819       5    6804    6798   -6807    6819       6
    6804    6798    6807    6822       5    6804    6798   -6807    6822       6
    6804    6798    6807    6825       5    6804    6798   -6807    6825       6
    6801    6798    6804    6810       6    6801    6798    6804    6813       6
    6801    6798    6804    6816       6    6801    6798    6807    6819       6
    6801    6798    6807    6822       6    6801    6798    6807    6825       6
    6837    6828    6834    6840       5    6837    6828   -6834    6840       6
    6837    6828    6834    6843       5    6837    6828   -6834    6843       6
    6837    6828    6834    6846       5    6837    6828   -6834    6846       6
    6834    6828    6837    6849       5    6834    6828   -6837    6849       6
    6834    6828    6837    6852       5    6834    6828   -6837    6852       6
    6834    6828    6837    6855       5    6834    6828   -6837    6855       6
    6831    6828    6834    6840       6    6831    6828    6834    6843       6
    6831    6828    6834    6846       6    6831    6828    6837    6849       6
    6831    6828    6837    6852       6    6831    6828    6837    6855       6
    6867    6858    6864    6870       5    6867    6858   -6864    6870       6
    6867    6858    6864    6873       5    6867    6858   -6864    6873       6
    6867    6858    6864    6876       5    6867    6858   -6864    6876       6
    6864    6858    6867    6879       5    6864    6858   -6867    6879       6
    6864    6858    6867    6882       5    6864    6858   -6867    6882       6
    6864    6858    6867    6885       5    6864    6858   -6867    6885       6
    6861    6858    6864    6870       6    6861    6858    6864    6873       6
    6861    6858    6864    6876       6    6861    6858    6867    6879       6
    6861    6858    6867    6882       6    6861    6858    6867    6885       6
    6897    6888    6894    6900       5    6897    6888   -6894    6900       6
    6897    6888    6894    6903       5    6897    6888   -6894    6903       6
    6897    6888    6894    6906       5    6897    6888   -6894    6906       6
    6894    6888    6897    6909       5    6894    6888   -6897    6909       6
    6894    6888    6897    6912       5    6894    6888   -6897    6912       6
    6894    6888    6897    6915       5    6894    6888   -6897    6915       6
    6891    6888    6894    6900       6    6891    6888    6894    6903       6
    6891    6888    6894    6906       6    6891    6888    6897    6909       6
    6891    6888    6897    6912       6    6891    6888    6897    6915       6
    6927    6918    6924    6930       5    6927    6918   -6924    6930       6
    6927    6918    6924    6933       5    6927    6918   -6924    6933       6
    6927    6918    6924    6936       5    6927    6918   -6924    6936       6
    6924    6918    6927    6939       5    6924    6918   -6927    6939       6
    6924    6918    6927    6942       5    6924    6918   -6927    6942       6
    6924    6918    6927    6945       5    6924    6918   -6927    6945       6
    6921    6918    6924    6930       6    6921    6918    6924    6933       6
    6921    6918    6924    6936       6    6921    6918    6927    6939       6
    6921    6918    6927    6942       6    6921    6918    6927    6945       6
    6957    6948    6954    6960       5    6957    6948   -6954    6960       6
    6957    6948    6954    6963       5    6957    6948   -6954    6963       6
    6957    6948    6954    6966       5    6957    6948   -6954    6966       6
    6954    6948    6957    6969       5    6954    6948   -6957    6969       6
    6954    6948    6957    6972       5    6954    6948   -6957    6972       6
    6954    6948    6957    6975       5    6954    6948   -6957    6975       6
    6951    6948    6954    6960       6    6951    6948    6954    6963       6
    6951    6948    6954    6966       6    6951    6948    6957    6969       6
    6951    6948    6957    6972       6    6951    6948    6957    6975       6
    6987    6978    6984    6990       5    6987    6978   -6984    6990       6
    6987    6978    6984    6993       5    6987    6978   -6984    6993       6
    6987    6978    6984    6996       5    6987    6978   -6984    6996       6
    6984    6978    6987    6999       5    6984    6978   -6987    6999       6
    6984    6978    6987    7002       5    6984    6978   -6987    7002       6
    6984    6978    6987    7005       5    6984    6978   -6987    7005       6
    6981    6978    6984    6990       6    6981    6978    6984    6993       6
    6981    6978    6984    6996       6    6981    6978    6987    6999       6
    6981    6978    6987    7002       6    6981    6978    6987    7005       6
    7017    7008    7014    7020       5    7017    7008   -7014    7020       6
    7017    7008    7014    7023       5    7017    7008   -7014    7023       6
    7017    7008    7014    7026       5    7017    7008   -7014    7026       6
    7014    7008    7017    7029       5    7014    7008   -7017    7029       6
    7014    7008    7017    7032       5    7014    7008   -7017    7032       6
    7014    7008    7017    7035       5    7014    7008   -7017    7035       6
    7011    7008    7014    7020       6    7011    7008    7014    7023       6
    7011    7008    7014    7026       6    7011    7008    7017    7029       6
    7011    7008    7017    7032       6    7011    7008    7017    7035       6
    7047    7038    7044    7050       5    7047    7038   -7044    7050       6
    7047    7038    7044    7053       5    7047    7038   -7044    7053       6
    7047    7038    7044    7056       5    7047    7038   -7044    7056       6
    7044    7038    7047    7059       5    7044    7038   -7047    7059       6
    7044    7038    7047    7062       5    7044    7038   -7047    7062       6
    7044    7038    7047    7065       5    7044    7038   -7047    7065       6
    7041    7038    7044    7050       6    7041    7038    7044    7053       6
    7041    7038    7044    7056       6    7041    7038    7047    7059       6
    7041    7038    7047    7062       6    7041    7038    7047    7065       6
    7077    7068    7074    7080       5    7077    7068   -7074    7080       6
    7077    7068    7074    7083       5    7077    7068   -7074    7083       6
    7077    7068    7074    7086       5    7077    7068   -7074    7086       6
    7074    7068    7077    7089       5    7074    7068   -7077    7089       6
    7074    7068    7077    7092       5    7074    7068   -7077    7092       6
    7074    7068    7077    7095       5    7074    7068   -7077    7095       6
    7071    7068    7074    7080       6    7071    7068    7074    7083       6
    7071    7068    7074    7086       6    7071    7068    7077    7089       6
    7071    7068    7077    7092       6    7071    7068    7077    7095       6
    7107    7098    7104    7110       5    7107    7098   -7104    7110       6
    7107    7098    7104    7113       5    7107    7098   -7104    7113       6
    7107    7098    7104    7116       5    7107    7098   -7104    7116       6
    7104    7098    7107    7119       5    7104    7098   -7107    7119       6
    7104    7098    7107    7122       5    7104    7098   -7107    7122       6
    7104    7098    7107    7125       5    7104    7098   -7107    7125       6
    7101    7098    7104    7110       6    7101    7098    7104    7113       6
    7101    7098    7104    7116       6    7101    7098    7107    7119       6
    7101    7098    7107    7122       6    7101    7098    7107    7125       6
    7137    7128    7134    7140       5    7137    7128   -7134    7140       6
    7137    7128    7134    7143       5    7137    7128   -7134    7143       6
    7137    7128    7134    7146       5    7137    7128   -7134    7146       6
    7134    7128    7137    7149       5    7134    7128   -7137    7149       6
    7134    7128    7137    7152       5    7134    7128   -7137    7152       6
    7134    7128    7137    7155       5    7134    7128   -7137    7155       6
    7131    7128    7134    7140       6    7131    7128    7134    7143       6
    7131    7128    7134    7146       6    7131    7128    7137    7149       6
    7131    7128    7137    7152       6    7131    7128    7137    7155       6
    7167    7158    7164    7170       5    7167    7158   -7164    7170       6
    7167    7158    7164    7173       5    7167    7158   -7164    7173       6
    7167    7158    7164    7176       5    7167    7158   -7164    7176       6
    7164    7158    7167    7179       5    7164    7158   -7167    7179       6
    7164    7158    7167    7182       5    7164    7158   -7167    7182       6
    7164    7158    7167    7185       5    7164    7158   -7167    7185       6
    7161    7158    7164    7170       6    7161    7158    7164    7173       6
    7161    7158    7164    7176       6    7161    7158    7167    7179       6
    7161    7158    7167    7182       6    7161    7158    7167    7185       6
    7197    7188    7194    7200       5    7197    7188   -7194    7200       6
    7197    7188    7194    7203       5    7197    7188   -7194    7203       6
    7197    7188    7194    7206       5    7197    7188   -7194    7206       6
    7194    7188    7197    7209       5    7194    7188   -7197    7209       6
    7194    7188    7197    7212       5    7194    7188   -7197    7212       6
    7194    7188    7197    7215       5    7194    7188   -7197    7215       6
    7191    7188    7194    7200       6    7191    7188    7194    7203       6
    7191    7188    7194    7206       6    7191    7188    7197    7209       6
    7191    7188    7197    7212       6    7191    7188    7197    7215       6
    7227    7218    7224    7230       5    7227    7218   -7224    7230       6
    7227    7218    7224    7233       5    7227    7218   -7224    7233       6
    7227    7218    7224    7236       5    7227    7218   -7224    7236       6
    7224    7218    7227    7239       5    7224    7218   -7227    7239       6
    7224    7218    7227    7242       5    7224    7218   -7227    7242       6
    7224    7218    7227    7245       5    7224    7218   -7227    7245       6
    7221    7218    7224    7230       6    7221    7218    7224    7233       6
    7221    7218    7224    7236       6    7221    7218    7227    7239       6
    7221    7218    7227    7242       6    7221    7218    7227    7245       6
    7257    7248    7254    7260       5    7257    7248   -7254    7260       6
    7257    7248    7254    7263       5    7257    7248   -7254    7263       6
    7257    7248    7254    7266       5    7257    7248   -7254    7266       6
    7254    7248    7257    7269       5    7254    7248   -7257    7269       6
    7254    7248    7257    7272       5    7254    7248   -7257    7272       6
    7254    7248    7257    7275       5    7254    7248   -7257    7275       6
    7251    7248    7254    7260       6    7251    7248    7254    7263       6
    7251    7248    7254    7266       6    7251    7248    7257    7269       6
    7251    7248    7257    7272       6    7251    7248    7257    7275       6
    7287    7278    7284    7290       5    7287    7278   -7284    7290       6
    7287    7278    7284    7293       5    7287    7278   -7284    7293       6
    7287    7278    7284    7296       5    7287    7278   -7284    7296       6
    7284    7278    7287    7299       5    7284    7278   -7287    7299       6
    7284    7278    7287    7302       5    7284    7278   -7287    7302       6
    7284    7278    7287    7305       5    7284    7278   -7287    7305       6
    7281    7278    7284    7290       6    7281    7278    7284    7293       6
    7281    7278    7284    7296       6    7281    7278    7287    7299       6
    7281    7278    7287    7302       6    7281    7278    7287    7305       6
    7317    7308    7314    7320       5    7317    7308   -7314    7320       6
    7317    7308    7314    7323       5    7317    7308   -7314    7323       6
    7317    7308    7314    7326       5    7317    7308   -7314    7326       6
    7314    7308    7317    7329       5    7314    7308   -7317    7329       6
    7314    7308    7317    7332       5    7314    7308   -7317    7332       6
    7314    7308    7317    7335       5    7314    7308   -7317    7335       6
    7311    7308    7314    7320       6    7311    7308    7314    7323       6
    7311    7308    7314    7326       6    7311    7308    7317    7329       6
    7311    7308    7317    7332       6    7311    7308    7317    7335       6
    7347    7338    7344    7350       5    7347    7338   -7344    7350       6
    7347    7338    7344    7353       5    7347    7338   -7344    7353       6
    7347    7338    7344    7356       5    7347    7338   -7344    7356       6
    7344    7338    7347    7359       5    7344    7338   -7347    7359       6
    7344    7338    7347    7362       5    7344    7338   -7347    7362       6
    7344    7338    7347    7365       5    7344    7338   -7347    7365       6
    7341    7338    7344    7350       6    7341    7338    7344    7353       6
    7341    7338    7344    7356       6    7341    7338    7347    7359       6
    7341    7338    7347    7362       6    7341    7338    7347    7365       6
    7377    7368    7374    7380       5    7377    7368   -7374    7380       6
    7377    7368    7374    7383       5    7377    7368   -7374    7383       6
    7377    7368    7374    7386       5    7377    7368   -7374    7386       6
    7374    7368    7377    7389       5    7374    7368   -7377    7389       6
    7374    7368    7377    7392       5    7374    7368   -7377    7392       6
    7374    7368    7377    7395       5    7374    7368   -7377    7395       6
    7371    7368    7374    7380       6    7371    7368    7374    7383       6
    7371    7368    7374    7386       6    7371    7368    7377    7389       6
    7371    7368    7377    7392       6    7371    7368    7377    7395       6
    7407    7398    7404    7410       5    7407    7398   -7404    7410       6
    7407    7398    7404    7413       5    7407    7398   -7404    7413       6
    7407    7398    7404    7416       5    7407    7398   -7404    7416       6
    7404    7398    7407    7419       5    7404    7398   -7407    7419       6
    7404    7398    7407    7422       5    7404    7398   -7407    7422       6
    7404    7398    7407    7425       5    7404    7398   -7407    7425       6
    7401    7398    7404    7410       6    7401    7398    7404    7413       6
    7401    7398    7404    7416       6    7401    7398    7407    7419       6
    7401    7398    7407    7422       6    7401    7398    7407    7425       6
    7437    7428    7434    7440       5    7437    7428   -7434    7440       6
    7437    7428    7434    7443       5    7437    7428   -7434    7443       6
    7437    7428    7434    7446       5    7437    7428   -7434    7446       6
    7434    7428    7437    7449       5    7434    7428   -7437    7449       6
    7434    7428    7437    7452       5    7434    7428   -7437    7452       6
    7434    7428    7437    7455       5    7434    7428   -7437    7455       6
    7431    7428    7434    7440       6    7431    7428    7434    7443       6
    7431    7428    7434    7446       6    7431    7428    7437    7449       6
    7431    7428    7437    7452       6    7431    7428    7437    7455       6
    7467    7458    7464    7470       5    7467    7458   -7464    7470       6
    7467    7458    7464    7473       5    7467    7458   -7464    7473       6
    7467    7458    7464    7476       5    7467    7458   -7464    7476       6
    7464    7458    7467    7479       5    7464    7458   -7467    7479       6
    7464    7458    7467    7482       5    7464    7458   -7467    7482       6
    7464    7458    7467    7485       5    7464    7458   -7467    7485       6
    7461    7458    7464    7470       6    7461    7458    7464    7473       6
    7461    7458    7464    7476       6    7461    7458    7467    7479       6
    7461    7458    7467    7482       6    7461    7458    7467    7485       6
    7497    7488    7494    7500       5    7497    7488   -7494    7500       6
    7497    7488    7494    7503       5    7497    7488   -7494    7503       6
    7497    7488    7494    7506       5    7497    7488   -7494    7506       6
    7494    7488    7497    7509       5    7494    7488   -7497    7509       6
    7494    7488    7497    7512       5    7494    7488   -7497    7512       6
    7494    7488    7497    7515       5    7494    7488   -7497    7515       6
    7491    7488    7494    7500       6    7491    7488    7494    7503       6
    7491    7488    7494    7506       6    7491    7488    7497    7509       6
    7491    7488    7497    7512       6    7491    7488    7497    7515       6
    7527    7518    7524    7530       5    7527    7518   -7524    7530       6
    7527    7518    7524    7533       5    7527    7518   -7524    7533       6
    7527    7518    7524    7536       5    7527    7518   -7524    7536       6
    7524    7518    7527    7539       5    7524    7518   -7527    7539       6
    7524    7518    7527    7542       5    7524    7518   -7527    7542       6
    7524    7518    7527    7545       5    7524    7518   -7527    7545       6
    7521    7518    7524    7530       6    7521    7518    7524    7533       6
    7521    7518    7524    7536       6    7521    7518    7527    7539       6
    7521    7518    7527    7542       6    7521    7518    7527    7545       6
    7557    7548    7554    7560       5    7557    7548   -7554    7560       6
    7557    7548    7554    7563       5    7557    7548   -7554    7563       6
    7557    7548    7554    7566       5    7557    7548   -7554    7566       6
    7554    7548    7557    7569       5    7554    7548   -7557    7569       6
    7554    7548    7557    7572       5    7554    7548   -7557    7572       6
    7554    7548    7557    7575       5    7554    7548   -7557    7575       6
    7551    7548    7554    7560       6    7551    7548    7554    7563       6
    7551    7548    7554    7566       6    7551    7548    7557    7569       6
    7551    7548    7557    7572       6    7551    7548    7557    7575       6
    7587    7578    7584    7590       5    7587    7578   -7584    7590       6
    7587    7578    7584    7593       5    7587    7578   -7584    7593       6
    7587    7578    7584    7596       5    7587    7578   -7584    7596       6
    7584    7578    7587    7599       5    7584    7578   -7587    7599       6
    7584    7578    7587    7602       5    7584    7578   -7587    7602       6
    7584    7578    7587    7605       5    7584    7578   -7587    7605       6
    7581    7578    7584    7590       6    7581    7578    7584    7593       6
    7581    7578    7584    7596       6    7581    7578    7587    7599       6
    7581    7578    7587    7602       6    7581    7578    7587    7605       6
    7617    7608    7614    7620       5    7617    7608   -7614    7620       6
    7617    7608    7614    7623       5    7617    7608   -7614    7623       6
    7617    7608    7614    7626       5    7617    7608   -7614    7626       6
    7614    7608    7617    7629       5    7614    7608   -7617    7629       6
    7614    7608    7617    7632       5    7614    7608   -7617    7632       6
    7614    7608    7617    7635       5    7614    7608   -7617    7635       6
    7611    7608    7614    7620       6    7611    7608    7614    7623       6
    7611    7608    7614    7626       6    7611    7608    7617    7629       6
    7611    7608    7617    7632       6    7611    7608    7617    7635       6
    7647    7638    7644    7650       5    7647    7638   -7644    7650       6
    7647    7638    7644    7653       5    7647    7638   -7644    7653       6
    7647    7638    7644    7656       5    7647    7638   -7644    7656       6
    7644    7638    7647    7659       5    7644    7638   -7647    7659       6
    7644    7638    7647    7662       5    7644    7638   -7647    7662       6
    7644    7638    7647    7665       5    7644    7638   -7647    7665       6
    7641    7638    7644    7650       6    7641    7638    7644    7653       6
    7641    7638    7644    7656       6    7641    7638    7647    7659       6
    7641    7638    7647    7662       6    7641    7638    7647    7665       6
    7677    7668    7674    7680       5    7677    7668   -7674    7680       6
    7677    7668    7674    7683       5    7677    7668   -7674    7683       6
    7677    7668    7674    7686       5    7677    7668   -7674    7686       6
    7674    7668    7677    7689       5    7674    7668   -7677    7689       6
    7674    7668    7677    7692       5    7674    7668   -7677    7692       6
    7674    7668    7677    7695       5    7674    7668   -7677    7695       6
    7671    7668    7674    7680       6    7671    7668    7674    7683       6
    7671    7668    7674    7686       6    7671    7668    7677    7689       6
    7671    7668    7677    7692       6    7671    7668    7677    7695       6
    7707    7698    7704    7710       5    7707    7698   -7704    7710       6
    7707    7698    7704    7713       5    7707    7698   -7704    7713       6
    7707    7698    7704    7716       5    7707    7698   -7704    7716       6
    7704    7698    7707    7719       5    7704    7698   -7707    7719       6
    7704    7698    7707    7722       5    7704    7698   -7707    7722       6
    7704    7698    7707    7725       5    7704    7698   -7707    7725       6
    7701    7698    7704    7710       6    7701    7698    7704    7713       6
    7701    7698    7704    7716       6    7701    7698    7707    7719       6
    7701    7698    7707    7722       6    7701    7698    7707    7725       6
    7737    7728    7734    7740       5    7737    7728   -7734    7740       6
    7737    7728    7734    7743       5    7737    7728   -7734    7743       6
    7737    7728    7734    7746       5    7737    7728   -7734    7746       6
    7734    7728    7737    7749       5    7734    7728   -7737    7749       6
    7734    7728    7737    7752       5    7734    7728   -7737    7752       6
    7734    7728    7737    7755       5    7734    7728   -7737    7755       6
    7731    7728    7734    7740       6    7731    7728    7734    7743       6
    7731    7728    7734    7746       6    7731    7728    7737    7749       6
    7731    7728    7737    7752       6    7731    7728    7737    7755       6
    7767    7758    7764    7770       5    7767    7758   -7764    7770       6
    7767    7758    7764    7773       5    7767    7758   -7764    7773       6
    7767    7758    7764    7776       5    7767    7758   -7764    7776       6
    7764    7758    7767    7779       5    7764    7758   -7767    7779       6
    7764    7758    7767    7782       5    7764    7758   -7767    7782       6
    7764    7758    7767    7785       5    7764    7758   -7767    7785       6
    7761    7758    7764    7770       6    7761    7758    7764    7773       6
    7761    7758    7764    7776       6    7761    7758    7767    7779       6
    7761    7758    7767    7782       6    7761    7758    7767    7785       6
    7797    7788    7794    7800       5    7797    7788   -7794    7800       6
    7797    7788    7794    7803       5    7797    7788   -7794    7803       6
    7797    7788    7794    7806       5    7797    7788   -7794    7806       6
    7794    7788    7797    7809       5    7794    7788   -7797    7809       6
    7794    7788    7797    7812       5    7794    7788   -7797    7812       6
    7794    7788    7797    7815       5    7794    7788   -7797    7815       6
    7791    7788    7794    7800       6    7791    7788    7794    7803       6
    7791    7788    7794    7806       6    7791    7788    7797    7809       6
    7791    7788    7797    7812       6    7791    7788    7797    7815       6
    7827    7818    7824    7830       5    7827    7818   -7824    7830       6
    7827    7818    7824    7833       5    7827    7818   -7824    7833       6
    7827    7818    7824    7836       5    7827    7818   -7824    7836       6
    7824    7818    7827    7839       5    7824    7818   -7827    7839       6
    7824    7818    7827    7842       5    7824    7818   -7827    7842       6
    7824    7818    7827    7845       5    7824    7818   -7827    7845       6
    7821    7818    7824    7830       6    7821    7818    7824    7833       6
    7821    7818    7824    7836       6    7821    7818    7827    7839       6
    7821    7818    7827    7842       6    7821    7818    7827    7845       6
    7857    7848    7854    7860       5    7857    7848   -7854    7860       6
    7857    7848    7854    7863       5    7857    7848   -7854    7863       6
    7857    7848    7854    7866       5    7857    7848   -7854    7866       6
    7854    7848    7857    7869       5    7854    7848   -7857    7869       6
    7854    7848    7857    7872       5    7854    7848   -7857    7872       6
    7854    7848    7857    7875       5    7854    7848   -7857    7875       6
    7851    7848    7854    7860       6    7851    7848    7854    7863       6
    7851    7848    7854    7866       6    7851    7848    7857    7869       6
    7851    7848    7857    7872       6    7851    7848    7857    7875       6
    7887    7878    7884    7890       5    7887    7878   -7884    7890       6
    7887    7878    7884    7893       5    7887    7878   -7884    7893       6
    7887    7878    7884    7896       5    7887    7878   -7884    7896       6
    7884    7878    7887    7899       5    7884    7878   -7887    7899       6
    7884    7878    7887    7902       5    7884    7878   -7887    7902       6
    7884    7878    7887    7905       5    7884    7878   -7887    7905       6
    7881    7878    7884    7890       6    7881    7878    7884    7893       6
    7881    7878    7884    7896       6    7881    7878    7887    7899       6
    7881    7878    7887    7902       6    7881    7878    7887    7905       6
    7917    7908    7914    7920       5    7917    7908   -7914    7920       6
    7917    7908    7914    7923       5    7917    7908   -7914    7923       6
    7917    7908    7914    7926       5    7917    7908   -7914    7926       6
    7914    7908    7917    7929       5    7914    7908   -7917    7929       6
    7914    7908    7917    7932       5    7914    7908   -7917    7932       6
    7914    7908    7917    7935       5    7914    7908   -7917    7935       6
    7911    7908    7914    7920       6    7911    7908    7914    7923       6
    7911    7908    7914    7926       6    7911    7908    7917    7929       6
    7911    7908    7917    7932       6    7911    7908    7917    7935       6
    7947    7938    7944    7950       5    7947    7938   -7944    7950       6
    7947    7938    7944    7953       5    7947    7938   -7944    7953       6
    7947    7938    7944    7956       5    7947    7938   -7944    7956       6
    7944    7938    7947    7959       5    7944    7938   -7947    7959       6
    7944    7938    7947    7962       5    7944    7938   -7947    7962       6
    7944    7938    7947    7965       5    7944    7938   -7947    7965       6
    7941    7938    7944    7950       6    7941    7938    7944    7953       6
    7941    7938    7944    7956       6    7941    7938    7947    7959       6
    7941    7938    7947    7962       6    7941    7938    7947    7965       6
    7977    7968    7974    7980       5    7977    7968   -7974    7980       6
    7977    7968    7974    7983       5    7977    7968   -7974    7983       6
    7977    7968    7974    7986       5    7977    7968   -7974    7986       6
    7974    7968    7977    7989       5    7974    7968   -7977    7989       6
    7974    7968    7977    7992       5    7974    7968   -7977    7992       6
    7974    7968    7977    7995       5    7974    7968   -7977    7995       6
    7971    7968    7974    7980       6    7971    7968    7974    7983       6
    7971    7968    7974    7986       6    7971    7968    7977    7989       6
    7971    7968    7977    7992       6    7971    7968    7977    7995       6
    8007    7998    8004    8010       5    8007    7998   -8004    8010       6
    8007    7998    8004    8013       5    8007    7998   -8004    8013       6
    8007    7998    8004    8016       5    8007    7998   -8004    8016       6
    8004    7998    8007    8019       5    8004    7998   -8007    8019       6
    8004    7998    8007    8022       5    8004    7998   -8007    8022       6
    8004    7998    8007    8025       5    8004    7998   -8007    8025       6
    8001    7998    8004    8010       6    8001    7998    8004    8013       6
    8001    7998    8004    8016       6    8001    7998    8007    8019       6
    8001    7998    8007    8022       6    8001    7998    8007    8025       6
    8037    8028    8034    8040       5    8037    8028   -8034    8040       6
    8037    8028    8034    8043       5    8037    8028   -8034    8043       6
    8037    8028    8034    8046       5    8037    8028   -8034    8046       6
    8034    8028    8037    8049       5    8034    8028   -8037    8049       6
    8034    8028    8037    8052       5    8034    8028   -8037    8052       6
    8034    8028    8037    8055       5    8034    8028   -8037    8055       6
    8031    8028    8034    8040       6    8031    8028    8034    8043       6
    8031    8028    8034    8046       6    8031    8028    8037    8049       6
    8031    8028    8037    8052       6    8031    8028    8037    8055       6
    8067    8058    8064    8070       5    8067    8058   -8064    8070       6
    8067    8058    8064    8073       5    8067    8058   -8064    8073       6
    8067    8058    8064    8076       5    8067    8058   -8064    8076       6
    8064    8058    8067    8079       5    8064    8058   -8067    8079       6
    8064    8058    8067    8082       5    8064    8058   -8067    8082       6
    8064    8058    8067    8085       5    8064    8058   -8067    8085       6
    8061    8058    8064    8070       6    8061    8058    8064    8073       6
    8061    8058    8064    8076       6    8061    8058    8067    8079       6
    8061    8058    8067    8082       6    8061    8058    8067    8085       6
    8097    8088    8094    8100       5    8097    8088   -8094    8100       6
    8097    8088    8094    8103       5    8097    8088   -8094    8103       6
    8097    8088    8094    8106       5    8097    8088   -8094    8106       6
    8094    8088    8097    8109       5    8094    8088   -8097    8109       6
    8094    8088    8097    8112       5    8094    8088   -8097    8112       6
    8094    8088    8097    8115       5    8094    8088   -8097    8115       6
    8091    8088    8094    8100       6    8091    8088    8094    8103       6
    8091    8088    8094    8106       6    8091    8088    8097    8109       6
    8091    8088    8097    8112       6    8091    8088    8097    8115       6
    8127    8118    8124    8130       5    8127    8118   -8124    8130       6
    8127    8118    8124    8133       5    8127    8118   -8124    8133       6
    8127    8118    8124    8136       5    8127    8118   -8124    8136       6
    8124    8118    8127    8139       5    8124    8118   -8127    8139       6
    8124    8118    8127    8142       5    8124    8118   -8127    8142       6
    8124    8118    8127    8145       5    8124    8118   -8127    8145       6
    8121    8118    8124    8130       6    8121    8118    8124    8133       6
    8121    8118    8124    8136       6    8121    8118    8127    8139       6
    8121    8118    8127    8142       6    8121    8118    8127    8145       6
    8157    8148    8154    8160       5    8157    8148   -8154    8160       6
    8157    8148    8154    8163       5    8157    8148   -8154    8163       6
    8157    8148    8154    8166       5    8157    8148   -8154    8166       6
    8154    8148    8157    8169       5    8154    8148   -8157    8169       6
    8154    8148    8157    8172       5    8154    8148   -8157    8172       6
    8154    8148    8157    8175       5    8154    8148   -8157    8175       6
    8151    8148    8154    8160       6    8151    8148    8154    8163       6
    8151    8148    8154    8166       6    8151    8148    8157    8169       6
    8151    8148    8157    8172       6    8151    8148    8157    8175       6
    8187    8178    8184    8190       5    8187    8178   -8184    8190       6
    8187    8178    8184    8193       5    8187    8178   -8184    8193       6
    8187    8178    8184    8196       5    8187    8178   -8184    8196       6
    8184    8178    8187    8199       5    8184    8178   -8187    8199       6
    8184    8178    8187    8202       5    8184    8178   -8187    8202       6
    8184    8178    8187    8205       5    8184    8178   -8187    8205       6
    8181    8178    8184    8190       6    8181    8178    8184    8193       6
    8181    8178    8184    8196       6    8181    8178    8187    8199       6
    8181    8178    8187    8202       6    8181    8178    8187    8205       6
    8217    8208    8214    8220       5    8217    8208   -8214    8220       6
    8217    8208    8214    8223       5    8217    8208   -8214    8223       6
    8217    8208    8214    8226       5    8217    8208   -8214    8226       6
    8214    8208    8217    8229       5    8214    8208   -8217    8229       6
    8214    8208    8217    8232       5    8214    8208   -8217    8232       6
    8214    8208    8217    8235       5    8214    8208   -8217    8235       6
    8211    8208    8214    8220       6    8211    8208    8214    8223       6
    8211    8208    8214    8226       6    8211    8208    8217    8229       6
    8211    8208    8217    8232       6    8211    8208    8217    8235       6
    8247    8238    8244    8250       5    8247    8238   -8244    8250       6
    8247    8238    8244    8253       5    8247    8238   -8244    8253       6
    8247    8238    8244    8256       5    8247    8238   -8244    8256       6
    8244    8238    8247    8259       5    8244    8238   -8247    8259       6
    8244    8238    8247    8262       5    8244    8238   -8247    8262       6
    8244    8238    8247    8265       5    8244    8238   -8247    8265       6
    8241    8238    8244    8250       6    8241    8238    8244    8253       6
    8241    8238    8244    8256       6    8241    8238    8247    8259       6
    8241    8238    8247    8262       6    8241    8238    8247    8265       6
    8277    8268    8274    8280       5    8277    8268   -8274    8280       6
    8277    8268    8274    8283       5    8277    8268   -8274    8283       6
    8277    8268    8274    8286       5    8277    8268   -8274    8286       6
    8274    8268    8277    8289       5    8274    8268   -8277    8289       6
    8274    8268    8277    8292       5    8274    8268   -8277    8292       6
    8274    8268    8277    8295       5    8274    8268   -8277    8295       6
    8271    8268    8274    8280       6    8271    8268    8274    8283       6
    8271    8268    8274    8286       6    8271    8268    8277    8289       6
    8271    8268    8277    8292       6    8271    8268    8277    8295       6
    8307    8298    8304    8310       5    8307    8298   -8304    8310       6
    8307    8298    8304    8313       5    8307    8298   -8304    8313       6
    8307    8298    8304    8316       5    8307    8298   -8304    8316       6
    8304    8298    8307    8319       5    8304    8298   -8307    8319       6
    8304    8298    8307    8322       5    8304    8298   -8307    8322       6
    8304    8298    8307    8325       5    8304    8298   -8307    8325       6
    8301    8298    8304    8310       6    8301    8298    8304    8313       6
    8301    8298    8304    8316       6    8301    8298    8307    8319       6
    8301    8298    8307    8322       6    8301    8298    8307    8325       6
    8337    8328    8334    8340       5    8337    8328   -8334    8340       6
    8337    8328    8334    8343       5    8337    8328   -8334    8343       6
    8337    8328    8334    8346       5    8337    8328   -8334    8346       6
    8334    8328    8337    8349       5    8334    8328   -8337    8349       6
    8334    8328    8337    8352       5    8334    8328   -8337    8352       6
    8334    8328    8337    8355       5    8334    8328   -8337    8355       6
    8331    8328    8334    8340       6    8331    8328    8334    8343       6
    8331    8328    8334    8346       6    8331    8328    8337    8349       6
    8331    8328    8337    8352       6    8331    8328    8337    8355       6
    8367    8358    8364    8370       5    8367    8358   -8364    8370       6
    8367    8358    8364    8373       5    8367    8358   -8364    8373       6
    8367    8358    8364    8376       5    8367    8358   -8364    8376       6
    8364    8358    8367    8379       5    8364    8358   -8367    8379       6
    8364    8358    8367    8382       5    8364    8358   -8367    8382       6
    8364    8358    8367    8385       5    8364    8358   -8367    8385       6
    8361    8358    8364    8370       6    8361    8358    8364    8373       6
    8361    8358    8364    8376       6    8361    8358    8367    8379       6
    8361    8358    8367    8382       6    8361    8358    8367    8385       6
    8397    8388    8394    8400       5    8397    8388   -8394    8400       6
    8397    8388    8394    8403       5    8397    8388   -8394    8403       6
    8397    8388    8394    8406       5    8397    8388   -8394    8406       6
    8394    8388    8397    8409       5    8394    8388   -8397    8409       6
    8394    8388    8397    8412       5    8394    8388   -8397    8412       6
    8394    8388    8397    8415       5    8394    8388   -8397    8415       6
    8391    8388    8394    8400       6    8391    8388    8394    8403       6
    8391    8388    8394    8406       6    8391    8388    8397    8409       6
    8391    8388    8397    8412       6    8391    8388    8397    8415       6
    8427    8418    8424    8430       5    8427    8418   -8424    8430       6
    8427    8418    8424    8433       5    8427    8418   -8424    8433       6
    8427    8418    8424    8436       5    8427    8418   -8424    8436       6
    8424    8418    8427    8439       5    8424    8418   -8427    8439       6
    8424    8418    8427    8442       5    8424    8418   -8427    8442       6
    8424    8418    8427    8445       5    8424    8418   -8427    8445       6
    8421    8418    8424    8430       6    8421    8418    8424    8433       6
    8421    8418    8424    8436       6    8421    8418    8427    8439       6
    8421    8418    8427    8442       6    8421    8418    8427    8445       6
    8457    8448    8454    8460       5    8457    8448   -8454    8460       6
    8457    8448    8454    8463       5    8457    8448   -8454    8463       6
    8457    8448    8454    8466       5    8457    8448   -8454    8466       6
    8454    8448    8457    8469       5    8454    8448   -8457    8469       6
    8454    8448    8457    8472       5    8454    8448   -8457    8472       6
    8454    8448    8457    8475       5    8454    8448   -8457    8475       6
    8451    8448    8454    8460       6    8451    8448    8454    8463       6
    8451    8448    8454    8466       6    8451    8448    8457    8469       6
    8451    8448    8457    8472       6    8451    8448    8457    8475       6
    8487    8478    8484    8490       5    8487    8478   -8484    8490       6
    8487    8478    8484    8493       5    8487    8478   -8484    8493       6
    8487    8478    8484    8496       5    8487    8478   -8484    8496       6
    8484    8478    8487    8499       5    8484    8478   -8487    8499       6
    8484    8478    8487    8502       5    8484    8478   -8487    8502       6
    8484    8478    8487    8505       5    8484    8478   -8487    8505       6
    8481    8478    8484    8490       6    8481    8478    8484    8493       6
    8481    8478    8484    8496       6    8481    8478    8487    8499       6
    8481    8478    8487    8502       6    8481    8478    8487    8505       6
    8517    8508    8514    8520       5    8517    8508   -8514    8520       6
    8517    8508    8514    8523       5    8517    8508   -8514    8523       6
    8517    8508    8514    8526       5    8517    8508   -8514    8526       6
    8514    8508    8517    8529       5    8514    8508   -8517    8529       6
    8514    8508    8517    8532       5    8514    8508   -8517    8532       6
    8514    8508    8517    8535       5    8514    8508   -8517    8535       6
    8511    8508    8514    8520       6    8511    8508    8514    8523       6
    8511    8508    8514    8526       6    8511    8508    8517    8529       6
    8511    8508    8517    8532       6    8511    8508    8517    8535       6
    8547    8538    8544    8550       5    8547    8538   -8544    8550       6
    8547    8538    8544    8553       5    8547    8538   -8544    8553       6
    8547    8538    8544    8556       5    8547    8538   -8544    8556       6
    8544    8538    8547    8559       5    8544    8538   -8547    8559       6
    8544    8538    8547    8562       5    8544    8538   -8547    8562       6
    8544    8538    8547    8565       5    8544    8538   -8547    8565       6
    8541    8538    8544    8550       6    8541    8538    8544    8553       6
    8541    8538    8544    8556       6    8541    8538    8547    8559       6
    8541    8538    8547    8562       6    8541    8538    8547    8565       6
    8577    8568    8574    8580       5    8577    8568   -8574    8580       6
    8577    8568    8574    8583       5    8577    8568   -8574    8583       6
    8577    8568    8574    8586       5    8577    8568   -8574    8586       6
    8574    8568    8577    8589       5    8574    8568   -8577    8589       6
    8574    8568    8577    8592       5    8574    8568   -8577    8592       6
    8574    8568    8577    8595       5    8574    8568   -8577    8595       6
    8571    8568    8574    8580       6    8571    8568    8574    8583       6
    8571    8568    8574    8586       6    8571    8568    8577    8589       6
    8571    8568    8577    8592       6    8571    8568    8577    8595       6
    8607    8598    8604    8610       5    8607    8598   -8604    8610       6
    8607    8598    8604    8613       5    8607    8598   -8604    8613       6
    8607    8598    8604    8616       5    8607    8598   -8604    8616       6
    8604    8598    8607    8619       5    8604    8598   -8607    8619       6
    8604    8598    8607    8622       5    8604    8598   -8607    8622       6
    8604    8598    8607    8625       5    8604    8598   -8607    8625       6
    8601    8598    8604    8610       6    8601    8598    8604    8613       6
    8601    8598    8604    8616       6    8601    8598    8607    8619       6
    8601    8598    8607    8622       6    8601    8598    8607    8625       6
    8637    8628    8634    8640       5    8637    8628   -8634    8640       6
    8637    8628    8634    8643       5    8637    8628   -8634    8643       6
    8637    8628    8634    8646       5    8637    8628   -8634    8646       6
    8634    8628    8637    8649       5    8634    8628   -8637    8649       6
    8634    8628    8637    8652       5    8634    8628   -8637    8652       6
    8634    8628    8637    8655       5    8634    8628   -8637    8655       6
    8631    8628    8634    8640       6    8631    8628    8634    8643       6
    8631    8628    8634    8646       6    8631    8628    8637    8649       6
    8631    8628    8637    8652       6    8631    8628    8637    8655       6
    8667    8658    8664    8670       5    8667    8658   -8664    8670       6
    8667    8658    8664    8673       5    8667    8658   -8664    8673       6
    8667    8658    8664    8676       5    8667    8658   -8664    8676       6
    8664    8658    8667    8679       5    8664    8658   -8667    8679       6
    8664    8658    8667    8682       5    8664    8658   -8667    8682       6
    8664    8658    8667    8685       5    8664    8658   -8667    8685       6
    8661    8658    8664    8670       6    8661    8658    8664    8673       6
    8661    8658    8664    8676       6    8661    8658    8667    8679       6
    8661    8658    8667    8682       6    8661    8658    8667    8685       6
    8697    8688    8694    8700       5    8697    8688   -8694    8700       6
    8697    8688    8694    8703       5    8697    8688   -8694    8703       6
    8697    8688    8694    8706       5    8697    8688   -8694    8706       6
    8694    8688    8697    8709       5    8694    8688   -8697    8709       6
    8694    8688    8697    8712       5    8694    8688   -8697    8712       6
    8694    8688    8697    8715       5    8694    8688   -8697    8715       6
    8691    8688    8694    8700       6    8691    8688    8694    8703       6
    8691    8688    8694    8706       6    8691    8688    8697    8709       6
    8691    8688    8697    8712       6    8691    8688    8697    8715       6
    8727    8718    8724    8730       5    8727    8718   -8724    8730       6
    8727    8718    8724    8733       5    8727    8718   -8724    8733       6
    8727    8718    8724    8736       5    8727    8718   -8724    8736       6
    8724    8718    8727    8739       5    8724    8718   -8727    8739       6
    8724    8718    8727    8742       5    8724    8718   -8727    8742       6
    8724    8718    8727    8745       5    8724    8718   -8727    8745       6
    8721    8718    8724    8730       6    8721    8718    8724    8733       6
    8721    8718    8724    8736       6    8721    8718    8727    8739       6
    8721    8718    8727    8742       6    8721    8718    8727    8745       6
    8757    8748    8754    8760       5    8757    8748   -8754    8760       6
    8757    8748    8754    8763       5    8757    8748   -8754    8763       6
    8757    8748    8754    8766       5    8757    8748   -8754    8766       6
    8754    8748    8757    8769       5    8754    8748   -8757    8769       6
    8754    8748    8757    8772       5    8754    8748   -8757    8772       6
    8754    8748    8757    8775       5    8754    8748   -8757    8775       6
    8751    8748    8754    8760       6    8751    8748    8754    8763       6
    8751    8748    8754    8766       6    8751    8748    8757    8769       6
    8751    8748    8757    8772       6    8751    8748    8757    8775       6
    8787    8778    8784    8790       5    8787    8778   -8784    8790       6
    8787    8778    8784    8793       5    8787    8778   -8784    8793       6
    8787    8778    8784    8796       5    8787    8778   -8784    8796       6
    8784    8778    8787    8799       5    8784    8778   -8787    8799       6
    8784    8778    8787    8802       5    8784    8778   -8787    8802       6
    8784    8778    8787    8805       5    8784    8778   -8787    8805       6
    8781    8778    8784    8790       6    8781    8778    8784    8793       6
    8781    8778    8784    8796       6    8781    8778    8787    8799       6
    8781    8778    8787    8802       6    8781    8778    8787    8805       6
    8817    8808    8814    8820       5    8817    8808   -8814    8820       6
    8817    8808    8814    8823       5    8817    8808   -8814    8823       6
    8817    8808    8814    8826       5    8817    8808   -8814    8826       6
    8814    8808    8817    8829       5    8814    8808   -8817    8829       6
    8814    8808    8817    8832       5    8814    8808   -8817    8832       6
    8814    8808    8817    8835       5    8814    8808   -8817    8835       6
    8811    8808    8814    8820       6    8811    8808    8814    8823       6
    8811    8808    8814    8826       6    8811    8808    8817    8829       6
    8811    8808    8817    8832       6    8811    8808    8817    8835       6
    8847    8838    8844    8850       5    8847    8838   -8844    8850       6
    8847    8838    8844    8853       5    8847    8838   -8844    8853       6
    8847    8838    8844    8856       5    8847    8838   -8844    8856       6
    8844    8838    8847    8859       5    8844    8838   -8847    8859       6
    8844    8838    8847    8862       5    8844    8838   -8847    8862       6
    8844    8838    8847    8865       5    8844    8838   -8847    8865       6
    8841    8838    8844    8850       6    8841    8838    8844    8853       6
    8841    8838    8844    8856       6    8841    8838    8847    8859       6
    8841    8838    8847    8862       6    8841    8838    8847    8865       6
    8877    8868    8874    8880       5    8877    8868   -8874    8880       6
    8877    8868    8874    8883       5    8877    8868   -8874    8883       6
    8877    8868    8874    8886       5    8877    8868   -8874    8886       6
    8874    8868    8877    8889       5    8874    8868   -8877    8889       6
    8874    8868    8877    8892       5    8874    8868   -8877    8892       6
    8874    8868    8877    8895       5    8874    8868   -8877    8895       6
    8871    8868    8874    8880       6    8871    8868    8874    8883       6
    8871    8868    8874    8886       6    8871    8868    8877    8889       6
    8871    8868    8877    8892       6    8871    8868    8877    8895       6
    8907    8898    8904    8910       5    8907    8898   -8904    8910       6
    8907    8898    8904    8913       5    8907    8898   -8904    8913       6
    8907    8898    8904    8916       5    8907    8898   -8904    8916       6
    8904    8898    8907    8919       5    8904    8898   -8907    8919       6
    8904    8898    8907    8922       5    8904    8898   -8907    8922       6
    8904    8898    8907    8925       5    8904    8898   -8907    8925       6
    8901    8898    8904    8910       6    8901    8898    8904    8913       6
    8901    8898    8904    8916       6    8901    8898    8907    8919       6
    8901    8898    8907    8922       6    8901    8898    8907    8925       6
    8937    8928    8934    8940       5    8937    8928   -8934    8940       6
    8937    8928    8934    8943       5    8937    8928   -8934    8943       6
    8937    8928    8934    8946       5    8937    8928   -8934    8946       6
    8934    8928    8937    8949       5    8934    8928   -8937    8949       6
    8934    8928    8937    8952       5    8934    8928   -8937    8952       6
    8934    8928    8937    8955       5    8934    8928   -8937    8955       6
    8931    8928    8934    8940       6    8931    8928    8934    8943       6
    8931    8928    8934    8946       6    8931    8928    8937    8949       6
    8931    8928    8937    8952       6    8931    8928    8937    8955       6
    8967    8958    8964    8970       5    8967    8958   -8964    8970       6
    8967    8958    8964    8973       5    8967    8958   -8964    8973       6
    8967    8958    8964    8976       5    8967    8958   -8964    8976       6
    8964    8958    8967    8979       5    8964    8958   -8967    8979       6
    8964    8958    8967    8982       5    8964    8958   -8967    8982       6
    8964    8958    8967    8985       5    8964    8958   -8967    8985       6
    8961    8958    8964    8970       6    8961    8958    8964    8973       6
    8961    8958    8964    8976       6    8961    8958    8967    8979       6
    8961    8958    8967    8982       6    8961    8958    8967    8985       6
    8997    8988    8994    9000       5    8997    8988   -8994    9000       6
    8997    8988    8994    9003       5    8997    8988   -8994    9003       6
    8997    8988    8994    9006       5    8997    8988   -8994    9006       6
    8994    8988    8997    9009       5    8994    8988   -8997    9009       6
    8994    8988    8997    9012       5    8994    8988   -8997    9012       6
    8994    8988    8997    9015       5    8994    8988   -8997    9015       6
    8991    8988    8994    9000       6    8991    8988    8994    9003       6
    8991    8988    8994    9006       6    8991    8988    8997    9009       6
    8991    8988    8997    9012       6    8991    8988    8997    9015       6
    9027    9018    9024    9030       5    9027    9018   -9024    9030       6
    9027    9018    9024    9033       5    9027    9018   -9024    9033       6
    9027    9018    9024    9036       5    9027    9018   -9024    9036       6
    9024    9018    9027    9039       5    9024    9018   -9027    9039       6
    9024    9018    9027    9042       5    9024    9018   -9027    9042       6
    9024    9018    9027    9045       5    9024    9018   -9027    9045       6
    9021    9018    9024    9030       6    9021    9018    9024    9033       6
    9021    9018    9024    9036       6    9021    9018    9027    9039       6
    9021    9018    9027    9042       6    9021    9018    9027    9045       6
    9057    9048    9054    9060       5    9057    9048   -9054    9060       6
    9057    9048    9054    9063       5    9057    9048   -9054    9063       6
    9057    9048    9054    9066       5    9057    9048   -9054    9066       6
    9054    9048    9057    9069       5    9054    9048   -9057    9069       6
    9054    9048    9057    9072       5    9054    9048   -9057    9072       6
    9054    9048    9057    9075       5    9054    9048   -9057    9075       6
    9051    9048    9054    9060       6    9051    9048    9054    9063       6
    9051    9048    9054    9066       6    9051    9048    9057    9069       6
    9051    9048    9057    9072       6    9051    9048    9057    9075       6
    9087    9078    9084    9090       5    9087    9078   -9084    9090       6
    9087    9078    9084    9093       5    9087    9078   -9084    9093       6
    9087    9078    9084    9096       5    9087    9078   -9084    9096       6
    9084    9078    9087    9099       5    9084    9078   -9087    9099       6
    9084    9078    9087    9102       5    9084    9078   -9087    9102       6
    9084    9078    9087    9105       5    9084    9078   -9087    9105       6
    9081    9078    9084    9090       6    9081    9078    9084    9093       6
    9081    9078    9084    9096       6    9081    9078    9087    9099       6
    9081    9078    9087    9102       6    9081    9078    9087    9105       6
    9117    9108    9114    9120       5    9117    9108   -9114    9120       6
    9117    9108    9114    9123       5    9117    9108   -9114    9123       6
    9117    9108    9114    9126       5    9117    9108   -9114    9126       6
    9114    9108    9117    9129       5    9114    9108   -9117    9129       6
    9114    9108    9117    9132       5    9114    9108   -9117    9132       6
    9114    9108    9117    9135       5    9114    9108   -9117    9135       6
    9111    9108    9114    9120       6    9111    9108    9114    9123       6
    9111    9108    9114    9126       6    9111    9108    9117    9129       6
    9111    9108    9117    9132       6    9111    9108    9117    9135       6
    9147    9138    9144    9150       5    9147    9138   -9144    9150       6
    9147    9138    9144    9153       5    9147    9138   -9144    9153       6
    9147    9138    9144    9156       5    9147    9138   -9144    9156       6
    9144    9138    9147    9159       5    9144    9138   -9147    9159       6
    9144    9138    9147    9162       5    9144    9138   -9147    9162       6
    9144    9138    9147    9165       5    9144    9138   -9147    9165       6
    9141    9138    9144    9150       6    9141    9138    9144    9153       6
    9141    9138    9144    9156       6    9141    9138    9147    9159       6
    9141    9138    9147    9162       6    9141    9138    9147    9165       6
    9177    9168    9174    9180       5    9177    9168   -9174    9180       6
    9177    9168    9174    9183       5    9177    9168   -9174    9183       6
    9177    9168    9174    9186       5    9177    9168   -9174    9186       6
    9174    9168    9177    9189       5    9174    9168   -9177    9189       6
    9174    9168    9177    9192       5    9174    9168   -9177    9192       6
    9174    9168    9177    9195       5    9174    9168   -9177    9195       6
    9171    9168    9174    9180       6    9171    9168    9174    9183       6
    9171    9168    9174    9186       6    9171    9168    9177    9189       6
    9171    9168    9177    9192       6    9171    9168    9177    9195       6
    9207    9198    9204    9210       5    9207    9198   -9204    9210       6
    9207    9198    9204    9213       5    9207    9198   -9204    9213       6
    9207    9198    9204    9216       5    9207    9198   -9204    9216       6
    9204    9198    9207    9219       5    9204    9198   -9207    9219       6
    9204    9198    9207    9222       5    9204    9198   -9207    9222       6
    9204    9198    9207    9225       5    9204    9198   -9207    9225       6
    9201    9198    9204    9210       6    9201    9198    9204    9213       6
    9201    9198    9204    9216       6    9201    9198    9207    9219       6
    9201    9198    9207    9222       6    9201    9198    9207    9225       6
    9237    9228    9234    9240       5    9237    9228   -9234    9240       6
    9237    9228    9234    9243       5    9237    9228   -9234    9243       6
    9237    9228    9234    9246       5    9237    9228   -9234    9246       6
    9234    9228    9237    9249       5    9234    9228   -9237    9249       6
    9234    9228    9237    9252       5    9234    9228   -9237    9252       6
    9234    9228    9237    9255       5    9234    9228   -9237    9255       6
    9231    9228    9234    9240       6    9231    9228    9234    9243       6
    9231    9228    9234    9246       6    9231    9228    9237    9249       6
    9231    9228    9237    9252       6    9231    9228    9237    9255       6
    9267    9258    9264    9270       5    9267    9258   -9264    9270       6
    9267    9258    9264    9273       5    9267    9258   -9264    9273       6
    9267    9258    9264    9276       5    9267    9258   -9264    9276       6
    9264    9258    9267    9279       5    9264    9258   -9267    9279       6
    9264    9258    9267    9282       5    9264    9258   -9267    9282       6
    9264    9258    9267    9285       5    9264    9258   -9267    9285       6
    9261    9258    9264    9270       6    9261    9258    9264    9273       6
    9261    9258    9264    9276       6    9261    9258    9267    9279       6
    9261    9258    9267    9282       6    9261    9258    9267    9285       6
    9297    9288    9294    9300       5    9297    9288   -9294    9300       6
    9297    9288    9294    9303       5    9297    9288   -9294    9303       6
    9297    9288    9294    9306       5    9297    9288   -9294    9306       6
    9294    9288    9297    9309       5    9294    9288   -9297    9309       6
    9294    9288    9297    9312       5    9294    9288   -9297    9312       6
    9294    9288    9297    9315       5    9294    9288   -9297    9315       6
    9291    9288    9294    9300       6    9291    9288    9294    9303       6
    9291    9288    9294    9306       6    9291    9288    9297    9309       6
    9291    9288    9297    9312       6    9291    9288    9297    9315       6
    9327    9318    9324    9330       5    9327    9318   -9324    9330       6
    9327    9318    9324    9333       5    9327    9318   -9324    9333       6
    9327    9318    9324    9336       5    9327    9318   -9324    9336       6
    9324    9318    9327    9339       5    9324    9318   -9327    9339       6
    9324    9318    9327    9342       5    9324    9318   -9327    9342       6
    9324    9318    9327    9345       5    9324    9318   -9327    9345       6
    9321    9318    9324    9330       6    9321    9318    9324    9333       6
    9321    9318    9324    9336       6    9321    9318    9327    9339       6
    9321    9318    9327    9342       6    9321    9318    9327    9345       6
    9357    9348    9354    9360       5    9357    9348   -9354    9360       6
    9357    9348    9354    9363       5    9357    9348   -9354    9363       6
    9357    9348    9354    9366       5    9357    9348   -9354    9366       6
    9354    9348    9357    9369       5    9354    9348   -9357    9369       6
    9354    9348    9357    9372       5    9354    9348   -9357    9372       6
    9354    9348    9357    9375       5    9354    9348   -9357    9375       6
    9351    9348    9354    9360       6    9351    9348    9354    9363       6
    9351    9348    9354    9366       6    9351    9348    9357    9369       6
    9351    9348    9357    9372       6    9351    9348    9357    9375       6
    9387    9378    9384    9390       5    9387    9378   -9384    9390       6
    9387    9378    9384    9393       5    9387    9378   -9384    9393       6
    9387    9378    9384    9396       5    9387    9378   -9384    9396       6
    9384    9378    9387    9399       5    9384    9378   -9387    9399       6
    9384    9378    9387    9402       5    9384    9378   -9387    9402       6
    9384    9378    9387    9405       5    9384    9378   -9387    9405       6
    9381    9378    9384    9390       6    9381    9378    9384    9393       6
    9381    9378    9384    9396       6    9381    9378    9387    9399       6
    9381    9378    9387    9402       6    9381    9378    9387    9405       6
    9417    9408    9414    9420       5    9417    9408   -9414    9420       6
    9417    9408    9414    9423       5    9417    9408   -9414    9423       6
    9417    9408    9414    9426       5    9417    9408   -9414    9426       6
    9414    9408    9417    9429       5    9414    9408   -9417    9429       6
    9414    9408    9417    9432       5    9414    9408   -9417    9432       6
    9414    9408    9417    9435       5    9414    9408   -9417    9435       6
    9411    9408    9414    9420       6    9411    9408    9414    9423       6
    9411    9408    9414    9426       6    9411    9408    9417    9429       6
    9411    9408    9417    9432       6    9411    9408    9417    9435       6
    9447    9438    9444    9450       5    9447    9438   -9444    9450       6
    9447    9438    9444    9453       5    9447    9438   -9444    9453       6
    9447    9438    9444    9456       5    9447    9438   -9444    9456       6
    9444    9438    9447    9459       5    9444    9438   -9447    9459       6
    9444    9438    9447    9462       5    9444    9438   -9447    9462       6
    9444    9438    9447    9465       5    9444    9438   -9447    9465       6
    9441    9438    9444    9450       6    9441    9438    9444    9453       6
    9441    9438    9444    9456       6    9441    9438    9447    9459       6
    9441    9438    9447    9462       6    9441    9438    9447    9465       6
    9477    9468    9474    9480       5    9477    9468   -9474    9480       6
    9477    9468    9474    9483       5    9477    9468   -9474    9483       6
    9477    9468    9474    9486       5    9477    9468   -9474    9486       6
    9474    9468    9477    9489       5    9474    9468   -9477    9489       6
    9474    9468    9477    9492       5    9474    9468   -9477    9492       6
    9474    9468    9477    9495       5    9474    9468   -9477    9495       6
    9471    9468    9474    9480       6    9471    9468    9474    9483       6
    9471    9468    9474    9486       6    9471    9468    9477    9489       6
    9471    9468    9477    9492       6    9471    9468    9477    9495       6
    9507    9498    9504    9510       5    9507    9498   -9504    9510       6
    9507    9498    9504    9513       5    9507    9498   -9504    9513       6
    9507    9498    9504    9516       5    9507    9498   -9504    9516       6
    9504    9498    9507    9519       5    9504    9498   -9507    9519       6
    9504    9498    9507    9522       5    9504    9498   -9507    9522       6
    9504    9498    9507    9525       5    9504    9498   -9507    9525       6
    9501    9498    9504    9510       6    9501    9498    9504    9513       6
    9501    9498    9504    9516       6    9501    9498    9507    9519       6
    9501    9498    9507    9522       6    9501    9498    9507    9525       6
    9537    9528    9534    9540       5    9537    9528   -9534    9540       6
    9537    9528    9534    9543       5    9537    9528   -9534    9543       6
    9537    9528    9534    9546       5    9537    9528   -9534    9546       6
    9534    9528    9537    9549       5    9534    9528   -9537    9549       6
    9534    9528    9537    9552       5    9534    9528   -9537    9552       6
    9534    9528    9537    9555       5    9534    9528   -9537    9555       6
    9531    9528    9534    9540       6    9531    9528    9534    9543       6
    9531    9528    9534    9546       6    9531    9528    9537    9549       6
    9531    9528    9537    9552       6    9531    9528    9537    9555       6
    9567    9558    9564    9570       5    9567    9558   -9564    9570       6
    9567    9558    9564    9573       5    9567    9558   -9564    9573       6
    9567    9558    9564    9576       5    9567    9558   -9564    9576       6
    9564    9558    9567    9579       5    9564    9558   -9567    9579       6
    9564    9558    9567    9582       5    9564    9558   -9567    9582       6
    9564    9558    9567    9585       5    9564    9558   -9567    9585       6
    9561    9558    9564    9570       6    9561    9558    9564    9573       6
    9561    9558    9564    9576       6    9561    9558    9567    9579       6
    9561    9558    9567    9582       6    9561    9558    9567    9585       6
    9597    9588    9594    9600       5    9597    9588   -9594    9600       6
    9597    9588    9594    9603       5    9597    9588   -9594    9603       6
    9597    9588    9594    9606       5    9597    9588   -9594    9606       6
    9594    9588    9597    9609       5    9594    9588   -9597    9609       6
    9594    9588    9597    9612       5    9594    9588   -9597    9612       6
    9594    9588    9597    9615       5    9594    9588   -9597    9615       6
    9591    9588    9594    9600       6    9591    9588    9594    9603       6
    9591    9588    9594    9606       6    9591    9588    9597    9609       6
    9591    9588    9597    9612       6    9591    9588    9597    9615       6
    9627    9618    9624    9630       5    9627    9618   -9624    9630       6
    9627    9618    9624    9633       5    9627    9618   -9624    9633       6
    9627    9618    9624    9636       5    9627    9618   -9624    9636       6
    9624    9618    9627    9639       5    9624    9618   -9627    9639       6
    9624    9618    9627    9642       5    9624    9618   -9627    9642       6
    9624    9618    9627    9645       5    9624    9618   -9627    9645       6
    9621    9618    9624    9630       6    9621    9618    9624    9633       6
    9621    9618    9624    9636       6    9621    9618    9627    9639       6
    9621    9618    9627    9642       6    9621    9618    9627    9645       6
    9657    9648    9654    9660       5    9657    9648   -9654    9660       6
    9657    9648    9654    9663       5    9657    9648   -9654    9663       6
    9657    9648    9654    9666       5    9657    9648   -9654    9666       6
    9654    9648    9657    9669       5    9654    9648   -9657    9669       6
    9654    9648    9657    9672       5    9654    9648   -9657    9672       6
    9654    9648    9657    9675       5    9654    9648   -9657    9675       6
    9651    9648    9654    9660       6    9651    9648    9654    9663       6
    9651    9648    9654    9666       6    9651    9648    9657    9669       6
    9651    9648    9657    9672       6    9651    9648    9657    9675       6
    9687    9678    9684    9690       5    9687    9678   -9684    9690       6
    9687    9678    9684    9693       5    9687    9678   -9684    9693       6
    9687    9678    9684    9696       5    9687    9678   -9684    9696       6
    9684    9678    9687    9699       5    9684    9678   -9687    9699       6
    9684    9678    9687    9702       5    9684    9678   -9687    9702       6
    9684    9678    9687    9705       5    9684    9678   -9687    9705       6
    9681    9678    9684    9690       6    9681    9678    9684    9693       6
    9681    9678    9684    9696       6    9681    9678    9687    9699       6
    9681    9678    9687    9702       6    9681    9678    9687    9705       6
    9717    9708    9714    9720       5    9717    9708   -9714    9720       6
    9717    9708    9714    9723       5    9717    9708   -9714    9723       6
    9717    9708    9714    9726       5    9717    9708   -9714    9726       6
    9714    9708    9717    9729       5    9714    9708   -9717    9729       6
    9714    9708    9717    9732       5    9714    9708   -9717    9732       6
    9714    9708    9717    9735       5    9714    9708   -9717    9735       6
    9711    9708    9714    9720       6    9711    9708    9714    9723       6
    9711    9708    9714    9726       6    9711    9708    9717    9729       6
    9711    9708    9717    9732       6    9711    9708    9717    9735       6
    9747    9738    9744    9750       5    9747    9738   -9744    9750       6
    9747    9738    9744    9753       5    9747    9738   -9744    9753       6
    9747    9738    9744    9756       5    9747    9738   -9744    9756       6
    9744    9738    9747    9759       5    9744    9738   -9747    9759       6
    9744    9738    9747    9762       5    9744    9738   -9747    9762       6
    9744    9738    9747    9765       5    9744    9738   -9747    9765       6
    9741    9738    9744    9750       6    9741    9738    9744    9753       6
    9741    9738    9744    9756       6    9741    9738    9747    9759       6
    9741    9738    9747    9762       6    9741    9738    9747    9765       6
    9777    9768    9774    9780       5    9777    9768   -9774    9780       6
    9777    9768    9774    9783       5    9777    9768   -9774    9783       6
    9777    9768    9774    9786       5    9777    9768   -9774    9786       6
    9774    9768    9777    9789       5    9774    9768   -9777    9789       6
    9774    9768    9777    9792       5    9774    9768   -9777    9792       6
    9774    9768    9777    9795       5    9774    9768   -9777    9795       6
    9771    9768    9774    9780       6    9771    9768    9774    9783       6
    9771    9768    9774    9786       6    9771    9768    9777    9789       6
    9771    9768    9777    9792       6    9771    9768    9777    9795       6
    9807    9798    9804    9810       5    9807    9798   -9804    9810       6
    9807    9798    9804    9813       5    9807    9798   -9804    9813       6
    9807    9798    9804    9816       5    9807    9798   -9804    9816       6
    9804    9798    9807    9819       5    9804    9798   -9807    9819       6
    9804    9798    9807    9822       5    9804    9798   -9807    9822       6
    9804    9798    9807    9825       5    9804    9798   -9807    9825       6
    9801    9798    9804    9810       6    9801    9798    9804    9813       6
    9801    9798    9804    9816       6    9801    9798    9807    9819       6
    9801    9798    9807    9822       6    9801    9798    9807    9825       6
    9837    9828    9834    9840       5    9837    9828   -9834    9840       6
    9837    9828    9834    9843       5    9837    9828   -9834    9843       6
    9837    9828    9834    9846       5    9837    9828   -9834    9846       6
    9834    9828    9837    9849       5    9834    9828   -9837    9849       6
    9834    9828    9837    9852       5    9834    9828   -9837    9852       6
    9834    9828    9837    9855       5    9834    9828   -9837    9855       6
    9831    9828    9834    9840       6    9831    9828    9834    9843       6
    9831    9828    9834    9846       6    9831    9828    9837    9849       6
    9831    9828    9837    9852       6    9831    9828    9837    9855       6
    9867    9858    9864    9870       5    9867    9858   -9864    9870       6
    9867    9858    9864    9873       5    9867    9858   -9864    9873       6
    9867    9858    9864    9876       5    9867    9858   -9864    9876       6
    9864    9858    9867    9879       5    9864    9858   -9867    9879       6
    9864    9858    9867    9882       5    9864    9858   -9867    9882       6
    9864    9858    9867    9885       5    9864    9858   -9867    9885       6
    9861    9858    9864    9870       6    9861    9858    9864    9873       6
    9861    9858    9864    9876       6    9861    9858    9867    9879       6
    9861    9858    9867    9882       6    9861    9858    9867    9885       6
    9897    9888    9894    9900       5    9897    9888   -9894    9900       6
    9897    9888    9894    9903       5    9897    9888   -9894    9903       6
    9897    9888    9894    9906       5    9897    9888   -9894    9906       6
    9894    9888    9897    9909       5    9894    9888   -9897    9909       6
    9894    9888    9897    9912       5    9894    9888   -9897    9912       6
    9894    9888    9897    9915       5    9894    9888   -9897    9915       6
    9891    9888    9894    9900       6    9891    9888    9894    9903       6
    9891    9888    9894    9906       6    9891    9888    9897    9909       6
    9891    9888    9897    9912       6    9891    9888    9897    9915       6
    9927    9918    9924    9930       5    9927    9918   -9924    9930       6
    9927    9918    9924    9933       5    9927    9918   -9924    9933       6
    9927    9918    9924    9936       5    9927    9918   -9924    9936       6
    9924    9918    9927    9939       5    9924    9918   -9927    9939       6
    9924    9918    9927    9942       5    9924    9918   -9927    9942       6
    9924    9918    9927    9945       5    9924    9918   -9927    9945       6
    9921    9918    9924    9930       6    9921    9918    9924    9933       6
    9921    9918    9924    9936       6    9921    9918    9927    9939       6
    9921    9918    9927    9942       6    9921    9918    9927    9945       6
    9957    9948    9954    9960       5    9957    9948   -9954    9960       6
    9957    9948    9954    9963       5    9957    9948   -9954    9963       6
    9957    9948    9954    9966       5    9957    9948   -9954    9966       6
    9954    9948    9957    9969       5    9954    9948   -9957    9969       6
    9954    9948    9957    9972       5    9954    9948   -9957    9972       6
    9954    9948    9957    9975       5    9954    9948   -9957    9975       6
    9951    9948    9954    9960       6    9951    9948    9954    9963       6
    9951    9948    9954    9966       6    9951    9948    9957    9969       6
    9951    9948    9957    9972       6    9951    9948    9957    9975       6
    9987    9978    9984    9990       5    9987    9978   -9984    9990       6
    9987    9978    9984    9993       5    9987    9978   -9984    9993       6
    9987    9978    9984    9996       5    9987    9978   -9984    9996       6
    9984    9978    9987    9999       5    9984    9978   -9987    9999       6
    9984    9978    9987   10002       5    9984    9978   -9987   10002       6
    9984    9978    9987   10005       5    9984    9978   -9987   10005       6
    9981    9978    9984    9990       6    9981    9978    9984    9993       6
    9981    9978    9984    9996       6    9981    9978    9987    9999       6
    9981    9978    9987   10002       6    9981    9978    9987   10005       6
   10017   10008   10014   10020       5   10017   10008  -10014   10020       6
   10017   10008   10014   10023       5   10017   10008  -10014   10023       6
   10017   10008   10014   10026       5   10017   10008  -10014   10026       6
   10014   10008   10017   10029       5   10014   10008  -10017   10029       6
   10014   10008   10017   10032       5   10014   10008  -10017   10032       6
   10014   10008   10017   10035       5   10014   10008  -10017   10035       6
   10011   10008   10014   10020       6   10011   10008   10014   10023       6
   10011   10008   10014   10026       6   10011   10008   10017   10029       6
   10011   10008   10017   10032       6   10011   10008   10017   10035       6
   10047   10038   10044   10050       5   10047   10038  -10044   10050       6
   10047   10038   10044   10053       5   10047   10038  -10044   10053       6
   10047   10038   10044   10056       5   10047   10038  -10044   10056       6
   10044   10038   10047   10059       5   10044   10038  -10047   10059       6
   10044   10038   10047   10062       5   10044   10038  -10047   10062       6
   10044   10038   10047   10065       5   10044   10038  -10047   10065       6
   10041   10038   10044   10050       6   10041   10038   10044   10053       6
   10041   10038   10044   10056       6   10041   10038   10047   10059       6
   10041   10038   10047   10062       6   10041   10038   10047   10065       6
   10077   10068   10074   10080       5   10077   10068  -10074   10080       6
   10077   10068   10074   10083       5   10077   10068  -10074   10083       6
   10077   10068   10074   10086       5   10077   10068  -10074   10086       6
   10074   10068   10077   10089       5   10074   10068  -10077   10089       6
   10074   10068   10077   10092       5   10074   10068  -10077   10092       6
   10074   10068   10077   10095       5   10074   10068  -10077   10095       6
   10071   10068   10074   10080       6   10071   10068   10074   10083       6
   10071   10068   10074   10086       6   10071   10068   10077   10089       6
   10071   10068   10077   10092       6   10071   10068   10077   10095       6
   10107   10098   10104   10110       5   10107   10098  -10104   10110       6
   10107   10098   10104   10113       5   10107   10098  -10104   10113       6
   10107   10098   10104   10116       5   10107   10098  -10104   10116       6
   10104   10098   10107   10119       5   10104   10098  -10107   10119       6
   10104   10098   10107   10122       5   10104   10098  -10107   10122       6
   10104   10098   10107   10125       5   10104   10098  -10107   10125       6
   10101   10098   10104   10110       6   10101   10098   10104   10113       6
   10101   10098   10104   10116       6   10101   10098   10107   10119       6
   10101   10098   10107   10122       6   10101   10098   10107   10125       6
   10137   10128   10134   10140       5   10137   10128  -10134   10140       6
   10137   10128   10134   10143       5   10137   10128  -10134   10143       6
   10137   10128   10134   10146       5   10137   10128  -10134   10146       6
   10134   10128   10137   10149       5   10134   10128  -10137   10149       6
   10134   10128   10137   10152       5   10134   10128  -10137   10152       6
   10134   10128   10137   10155       5   10134   10128  -10137   10155       6
   10131   10128   10134   10140       6   10131   10128   10134   10143       6
   10131   10128   10134   10146       6   10131   10128   10137   10149       6
   10131   10128   10137   10152       6   10131   10128   10137   10155       6
   10167   10158   10164   10170       5   10167   10158  -10164   10170       6
   10167   10158   10164   10173       5   10167   10158  -10164   10173       6
   10167   10158   10164   10176       5   10167   10158  -10164   10176       6
   10164   10158   10167   10179       5   10164   10158  -10167   10179       6
   10164   10158   10167   10182       5   10164   10158  -10167   10182       6
   10164   10158   10167   10185       5   10164   10158  -10167   10185       6
   10161   10158   10164   10170       6   10161   10158   10164   10173       6
   10161   10158   10164   10176       6   10161   10158   10167   10179       6
   10161   10158   10167   10182       6   10161   10158   10167   10185       6
   10197   10188   10194   10200       5   10197   10188  -10194   10200       6
   10197   10188   10194   10203       5   10197   10188  -10194   10203       6
   10197   10188   10194   10206       5   10197   10188  -10194   10206       6
   10194   10188   10197   10209       5   10194   10188  -10197   10209       6
   10194   10188   10197   10212       5   10194   10188  -10197   10212       6
   10194   10188   10197   10215       5   10194   10188  -10197   10215       6
   10191   10188   10194   10200       6   10191   10188   10194   10203       6
   10191   10188   10194   10206       6   10191   10188   10197   10209       6
   10191   10188   10197   10212       6   10191   10188   10197   10215       6
   10227   10218   10224   10230       5   10227   10218  -10224   10230       6
   10227   10218   10224   10233       5   10227   10218  -10224   10233       6
   10227   10218   10224   10236       5   10227   10218  -10224   10236       6
   10224   10218   10227   10239       5   10224   10218  -10227   10239       6
   10224   10218   10227   10242       5   10224   10218  -10227   10242       6
   10224   10218   10227   10245       5   10224   10218  -10227   10245       6
   10221   10218   10224   10230       6   10221   10218   10224   10233       6
   10221   10218   10224   10236       6   10221   10218   10227   10239       6
   10221   10218   10227   10242       6   10221   10218   10227   10245       6
   10257   10248   10254   10260       5   10257   10248  -10254   10260       6
   10257   10248   10254   10263       5   10257   10248  -10254   10263       6
   10257   10248   10254   10266       5   10257   10248  -10254   10266       6
   10254   10248   10257   10269       5   10254   10248  -10257   10269       6
   10254   10248   10257   10272       5   10254   10248  -10257   10272       6
   10254   10248   10257   10275       5   10254   10248  -10257   10275       6
   10251   10248   10254   10260       6   10251   10248   10254   10263       6
   10251   10248   10254   10266       6   10251   10248   10257   10269       6
   10251   10248   10257   10272       6   10251   10248   10257   10275       6
   10287   10278   10284   10290       5   10287   10278  -10284   10290       6
   10287   10278   10284   10293       5   10287   10278  -10284   10293       6
   10287   10278   10284   10296       5   10287   10278  -10284   10296       6
   10284   10278   10287   10299       5   10284   10278  -10287   10299       6
   10284   10278   10287   10302       5   10284   10278  -10287   10302       6
   10284   10278   10287   10305       5   10284   10278  -10287   10305       6
   10281   10278   10284   10290       6   10281   10278   10284   10293       6
   10281   10278   10284   10296       6   10281   10278   10287   10299       6
   10281   10278   10287   10302       6   10281   10278   10287   10305       6
      57      63     -69    -105       7      54      60     -66    -102       7
      51      69     -63     -99       7      48      66     -60     -96       7
      39      69     -57     -93       7      36      66     -54     -90       7
      33      63     -51     -87       7      30      60     -48     -84       7
      15      18     -27     -75       7      12      21     -24     -72       7
      21      39      -9     -81       7      18      36      -6     -78       7
%FLAG DIHEDRALS_WITHOUT_HYDROGEN                                                
%FORMAT(10I8)                                                                   
      51      33      39      57       1      51      63     -69      57       1
      48      30      36      54       1      48      60     -66      54       1
      45      33      39      57       1      45      33      51      63       1
      42      30      36      54       1      42      30      48      60       1
      39      33      51      63       1      39      57     -69      63       1
      36      30      48      60       1      36      54     -66      60       1
      33      39      57      69       1      33      51     -63      69       1
      30      36      54      66       1      30      48     -60      66       1
      27      15      45      33       3      27      18       6      36       2
      27      18      12      42       1      24      12      18      27       1
      24      12      42      30       3      24      21       9      39       2
      24      21     -15      27       1      24      21      15      45       1
      21       9      39      33       2      21       9      39      57       2
      21      15     -45      33       3      21      24      12      42       1
      18       6      36      30       2      18       6      36      54       2
      18      12      24      21       1      18      12     -42      30       3
      18      27     -15      21       1      18      27      15      45       1
      15      21       9      39       2      15      45     -33      39       3
      15      45      33      51       3      12      18       6      36       2
      12      18      27      15       1      12      24     -21      15       1
      12      42     -30      36       3      12      42      30      48       3
       9      21      15      27       1       9      21      15      45       1
       9      21      24      12       1       9      39     -33      45       1
       9      39      33      51       1       9      39      57      69       1
       6      18      12      24       1       6      18      12      42       1
       6      18      27      15       1       6      36     -30      42       1
       6      36      30      48       1       6      36      54      66       1
       3      45      15      21       4       3      45      15      27       4
       3      45      33      39       4       3      45      33      51       4
       0      42      12      18       4       0      42      12      24       4
       0      42      30      36       4       0      42      30      48       4
      15      33     -45      -3       8       0      42     -30     -12       8
      33      57     -39      -9       7      30      54     -36      -6       7
      45      39     -33     -51       7      42      36     -30     -48       7
      15      24     -21      -9       7      12      27     -18      -6       7
      45      21     -15     -27       7      42      18     -12     -24       7
%FLAG EXCLUDED_ATOMS_LIST                                                       
%FORMAT(10I8)                                                                   
       5       7       9      11      13      15      17       6       8      10
      12      14      16      18       5       6       7       9      10      11
      13      15      17      19      23      26      27      31       5       6
       8       9      10      12      14      16      18      20      24      25
      28      32       6       7       8       9      10      11      13      15
      17      25      26      27       7       8       9      10      12      14
      16      18      25      26      28       8       9      10      11      13
      15      16      19      25      26      27       9      10      12      14
      15      16      20      25      26      28      10      11      14      15
      16      25      28      12      13      15      16      26      27      13
      15      17      19      21      23      27      29      31      33      14
      16      18      20      22      24      28      30      32      34      15
      17      19      21      23      27      29      31      35      16      18
      20      22      24      28      30      32      36      17      19      21
      25      29      18      20      22      26      30      19      21      23
      29      33      35      20      22      24      30      34      36      21
      23      27      31      33      35      22      24      28      32      34
      36      23      29      31      33      35      24      30      32      34
      36      29      31      33      35      30      32      34      36       0
       0       0       0      33      34      35      36      35      36       0
       0      38      39      40      41      42      43      44      45      46
      39      40      41      42      43      44      45      46      40      41
      42      43      44      45      46      41      42      43      44      45
      46      42      43      43       0      45      46      46       0      48
      49      50      51      52      53      54      55      56      49      50
      51      52      53      54      55      56      50      51      52      53
      54      55      56      51      52      53      54      55      56      52
      53      53       0      55      56      56       0      58      59      60
      61      62      63      64      65      66      59      60      61      62
      63      64      65      66      60      61      62      63      64      65
      66      61      62      63      64      65      66      62      63      63
       0      65      66      66       0      68      69      70      71      72
      73      74      75      76      69      70      71      72      73      74
      75      76      70      71      72      73      74      75      76      71
      72      73      74      75      76      72      73      73       0      75
      76      76       0      78      79      80      81      82      83      84
      85      86      79      80      81      82      83      84      85      86
      80      81      82      83      84      85      86      81      82      83
      84      85      86      82      83      83       0      85      86      86
       0      88      89      90      91      92      93      94      95      96
      89      90      91      92      93      94      95      96      90      91
      92      93      94      95      96      91      92      93      94      95
      96      92      93      93       0      95      96      96       0      98
      99     100     101     102     103     104     105     106      99     100
     101     102     103     104     105     106     100     101     102     103
     104     105     106     101     102     103     104     105     106     102
     103     103       0     105     106     106       0     108     109     110
     111     112     113     114     115     116     109     110     111     112
     113     114     115     116     110     111     112     113     114     115
     116     111     112     113     114     115     116     112     113     113
       0     115     116     116       0     118     119     120     121     122
     123     124     125     126     119     120     121     122     123     124
     125     126     120     121     122     123     124     125     126     121
     122     123     124     125     126     122     123     123       0     125
     126     126       0     128     129     130     131     132     133     134
     135     136     129     130     131     132     133     134     135     136
     130     131     132     133     134     135     136     131     132     133
     134     135     136     132     133     133       0     135     136     136
       0     138     139     140     141     142     143     144     145     146
     139     140     141     142     143     144     145     146     140     141
     142     143     144     145     146     141     142     143     144     145
     146     142     143     143       0     145     146     146       0     148
     149     150     151     152     153     154     155     156     149     150
     151     152     153     154     155     156     150     151     152     153
     154     155     156     151     152     153     154     155     156     152
     153     153       0     155     156     156       0     158     159     160
     161     162     163     164     165     166     159     160     161     162
     163     164     165     166     160     161     162     163     164     165
     166     161     162     163     164     165     166     162     163     163
       0     165     166     166       0     168     169     170     171     172
     173     174     175     176     169     170     171     172     173     174
     175     176     170     171     172     173     174     175     176     171
     172     173     174     175     176     172     173     173       0     175
     176     176       0     178     179     180     181     182     183     184
     185     186     179     180     181     182     183     184     185     186
     180     181     182     183     184     185     186     181     182     183
     184     185     186     182     183     183       0     185     186     186
       0     188     189     190     191     192     193     194     195     196
     189     190     191     192     193     194     195     196     190     191
     192     193     194     195     196     191     192     193     194     195
     196     192     193     193       0     195     196     196       0     198
     199     200     201     202     203     204     205     206     199     200
     201     202     203     204     205     206     200     201     202     203
     204     205     206     201     202     203     204     205     206     202
     203     203       0     205     206     206       0     208     209     210
     211     212     213     214     215     216     209     210     211     212
     213     214     215     216     210     211     212     213     214     215
     216     211     212     213     214     215     216     212     213     213
       0     215     216     216       0     218     219     220     221     222
     223     224     225     226     219     220     221     222     223     224
     225     226     220     221     222     223     224     225     226     221
     222     223     224     225     226     222     223     223       0     225
     226     226       0     228     229     230     231     232     233     234
     235     236     229     230     231     232     233     234     235     236
     230     231     232     233     234     235     236     231     232     233
     234     235     236     232     233     233       0     235     236     236
       0     238     239     240     241     242     243     244     245     246
     239     240     241     242     243     244     245     246     240     241
     242     243     244     245     246     241     242     243     244     245
     246     242     243     243       0     245     246     246       0     248
     249     250     251     252     253     254     255     256     249     250
     251     252     253     254     255     256     250     251     252     253
     254     255     256     251     252     253     254     255     256     252
     253     253       0     255     256     256       0     258     259     260
     261     262     263     264     265     266     259     260     261     262
     263     264     265     266     260     261     262     263     264     265
     266     261     262     263     264     265     266     262     263     263
       0     265     266     266       0     268     269     270     271     272
     273     274     275     276     269     270     271     272     273     274
     275     276     270     271     272     273     274     275     276     271
     272     273     274     275     276     272     273     273       0     275
     276     276       0     278     279     280     281     282     283     284
     285     286     279     280     281     282     283     284     285     286
     280     281     282     283     284     285     286     281     282     283
     284     285     286     282     283     283       0     285     286     286
       0     288     289     290     291     292     293     294     295     296
     289     290     291     292     293     294     295     296     290     291
     292     293     294     295     296     291     292     293     294     295
     296     292     293     293       0     295     296     296       0     298
     299     300     301     302     303     304     305     306     299     300
     301     302     303     304     305     306     300     301     302     303
     304     305     306     301     302     303     304     305     306     302
     303     303       0     305     306     306       0     308     309     310
     311     312     313     314     315     316     309     310     311     312
     313     314     315     316     310     311     312     313     314     315
     316     311     312     313     314     315     316     312     313     313
       0     315     316     316       0     318     319     320     321     322
     323     324     325     326     319     320     321     322     323     324
     325     326     320     321     322     323     324     325     326     321
     322     323     324     325     326     322     323     323       0     325
     326     326       0     328     329     330     331     332     333     334
     335     336     329     330     331     332     333     334     335     336
     330     331     332     333     334     335     336     331     332     333
     334     335     336     332     333     333       0     335     336     336
       0     338     339     340     341     342     343     344     345     346
     339     340     341     342     343     344     345     346     340     341
     342     343     344     345     346     341     342     343     344     345
     346     342     343     343       0     345     346     346       0     348
     349     350     351     352     353     354     355     356     349     350
     351     352     353     354     355     356     350     351     352     353
     354     355     356     351     352     353     354     355     356     352
     353     353       0     355     356     356       0     358     359     360
     361     362     363     364     365     366     359     360     361     362
     363     364     365     366     360     361     362     363     364     365
     366     361     362     363     364     365     366     362     363     363
       0     365     366     366       0     368     369     370     371     372
     373     374     375     376     369     370     371     372     373     374
     375     376     370     371     372     373     374     375     376     371
     372     373     374     375     376     372     373     373       0     375
     376     376       0     378     379     380     381     382     383     384
     385     386     379     380     381     382     383     384     385     386
     380     381     382     383     384     385     386     381     382     383
     384     385     386     382     383     383       0     385     386     386
       0     388     389     390     391     392     393     394     395     396
     389     390     391     392     393     394     395     396     390     391
     392     393     394     395     396     391     392     393     394     395
     396     392     393     393       0     395     396     396       0     398
     399     400     401     402     403     404     405     406     399     400
     401     402     403     404     405     406     400     401     402     403
     404     405     406     401     402     403     404     405     406     402
     403     403       0     405     406     406       0     408     409     410
     411     412     413     414     415     416     409     410     411     412
     413     414     415     416     410     411     412     413     414     415
     416     411     412     413     414     415     416     412     413     413
       0     415     416     416       0     418     419     420     421     422
     423     424     425     426     419     420     421     422     423     424
     425     426     420     421     422     423     424     425     426     421
     422     423     424     425     426     422     423     423       0     425
     426     426       0     428     429     430     431     432     433     434
     435     436     429     430     431     432     433     434     435     436
     430     431     432     433     434     435     436     431     432     433
     434     435     436     432     433     433       0     435     436     436
       0     438     439     440     441     442     443     444     445     446
     439     440     441     442     443     444     445     446     440     441
     442     443     444     445     446     441     442     443     444     445
     446     442     443     443       0     445     446     446       0     448
     449     450     451     452     453     454     455     456     449     450
     451     452     453     454     455     456     450     451     452     453
     454     455     456     451     452     453     454     455     456     452
     453     453       0     455     456     456       0     458     459     460
     461     462     463     464     465     466     459     460     461     462
     463     464     465     466     460     461     462     463     464     465
     466     461     462     463     464     465     466     462     463     463
       0     465     466     466       0     468     469     470     471     472
     473     474     475     476     469     470     471     472     473     474
     475     476     470     471     472     473     474     475     476     471
     472     473     474     475     476     472     473     473       0     475
     476     476       0     478     479     480     481     482     483     484
     485     486     479     480     481     482     483     484     485     486
     480     481     482     483     484     485     486     481     482     483
     484     485     486     482     483     483       0     485     486     486
       0     488     489     490     491     492     493     494     495     496
     489     490     491     492     493     494     495     496     490     491
     492     493     494     495     496     491     492     493     494     495
     496     492     493     493       0     495     496     496       0     498
     499     500     501     502     503     504     505     506     499     500
     501     502     503     504     505     506     500     501     502     503
     504     505     506     501     502     503     504     505     506     502
     503     503       0     505     506     506       0     508     509     510
     511     512     513     514     515     516     509     510     511     512
     513     514     515     516     510     511     512     513     514     515
     516     511     512     513     514     515     516     512     513     513
       0     515     516     516       0     518     519     520     521     522
     523     524     525     526     519     520     521     522     523     524
     525     526     520     521     522     523     524     525     526     521
     522     523     524     525     526     522     523     523       0     525
     526     526       0     528     529     530     531     532     533     534
     535     536     529     530     531     532     533     534     535     536
     530     531     532     533     534     535     536     531     532     533
     534     535     536     532     533     533       0     535     536     536
       0     538     539     540     541     542     543     544     545     546
     539     540     541     542     543     544     545     546     540     541
     542     543     544     545     546     541     542     543     544     545
     546     542     543     543       0     545     546     546       0     548
     549     550     551     552     553     554     555     556     549     550
     551     552     553     554     555     556     550     551     552     553
     554     555     556     551     552     553     554     555     556     552
     553     553       0     555     556     556       0     558     559     560
     561     562     563     564     565     566     559     560     561     562
     563     564     565     566     560     561     562     563     564     565
     566     561     562     563     564     565     566     562     563     563
       0     565     566     566       0     568     569     570     571     572
     573     574     575     576     569     570     571     572     573     574
     575     576     570     571     572     573     574     575     576     571
     572     573     574     575     576     572     573     573       0     575
     576     576       0     578     579     580     581     582     583     584
     585     586     579     580     581     582     583     584     585     586
     580     581     582     583     584     585     586     581     582     583
     584     585     586     582     583     583       0     585     586     586
       0     588     589     590     591     592     593     594     595     596
     589     590     591     592     593     594     595     596     590     591
     592     593     594     595     596     591     592     593     594     595
     596     592     593     593       0     595     596     596       0     598
     599     600     601     602     603     604     605     606     599     600
     601     602     603     604     605     606     600     601     602     603
     604     605     606     601     602     603     604     605     606     602
     603     603       0     605     606     606       0     608     609     610
     611     612     613     614     615     616     609     610     611     612
     613     614     615     616     610     611     612     613     614     615
     616     611     612     613     614     615     616     612     613     613
       0     615     616     616       0     618     619     620     621     622
     623     624     625     626     619     620     621     622     623     624
     625     626     620     621     622     623     624     625     626     621
     622     623     624     625     626     622     623     623       0     625
     626     626       0     628     629     630     631     632     633     634
     635     636     629     630     631     632     633     634     635     636
     630     631     632     633     634     635     636     631     632     633
     634     635     636     632     633     633       0     635     636     636
       0     638     639     640     641     642     643     644     645     646
     639     640     641     642     643     644     645     646     640     641
     642     643     644     645     646     641     642     643     644     645
     646     642     643     643       0     645     646     646       0     648
     649     650     651     652     653     654     655     656     649     650
     651     652     653     654     655     656     650     651     652     653
     654     655     656     651     652     653     654     655     656     652
     653     653       0     655     656     656       0     658     659     660
     661     662     663     664     665     666     659     660     661     662
     663     664     665     666     660     661     662     663     664     665
     666     661     662     663     664     665     666     662     663     663
       0     665     666     666       0     668     669     670     671     672
     673     674     675     676     669     670     671     672     673     674
     675     676     670     671     672     673     674     675     676     671
     672     673     674     675     676     672     673     673       0     675
     676     676       0     678     679     680     681     682     683     684
     685     686     679     680     681     682     683     684     685     686
     680     681     682     683     684     685     686     681     682     683
     684     685     686     682     683     683       0     685     686     686
       0     688     689     690     691     692     693     694     695     696
     689     690     691     692     693     694     695     696     690     691
     692     693     694     695     696     691     692     693     694     695
     696     692     693     693       0     695     696     696       0     698
     699     700     701     702     703     704     705     706     699     700
     701     702     703     704     705     706     700     701     702     703
     704     705     706     701     702     703     704     705     706     702
     703     703       0     705     706     706       0     708     709     710
     711     712     713     714     715     716     709     710     711     712
     713     714     715     716     710     711     712     713     714     715
     716     711     712     713     714     715     716     712     713     713
       0     715     716     716       0     718     719     720     721     722
     723     724     725     726     719     720     721     722     723     724
     725     726     720     721     722     723     724     725     726     721
     722     723     724     725     726     722     723     723       0     725
     726     726       0     728     729     730     731     732     733     734
     735     736     729     730     731     732     733     734     735     736
     730     731     732     733     734     735     736     731     732     733
     734     735     736     732     733     733       0     735     736     736
       0     738     739     740     741     742     743     744     745     746
     739     740     741     742     743     744     745     746     740     741
     742     743     744     745     746     741     742     743     744     745
     746     742     743     743       0     745     746     746       0     748
     749     750     751     752     753     754     755     756     749     750
     751     752     753     754     755     756     750     751     752     753
     754     755     756     751     752     753     754     755     756     752
     753     753       0     755     756     756       0     758     759     760
     761     762     763     764     765     766     759     760     761     762
     763     764     765     766     760     761     762     763     764     765
     766     761     762     763     764     765     766     762     763     763
       0     765     766     766       0     768     769     770     771     772
     773     774     775     776     769     770     771     772     773     774
     775     776     770     771     772     773     774     775     776     771
     772     773     774     775     776     772     773     773       0     775
     776     776       0     778     779     780     781     782     783     784
     785     786     779     780     781     782     783     784     785     786
     780     781     782     783     784     785     786     781     782     783
     784     785     786     782     783     783       0     785     786     786
       0     788     789     790     791     792     793     794     795     796
     789     790     791     792     793     794     795     796     790     791
     792     793     794     795     796     791     792     793     794     795
     796     792     793     793       0     795     796     796       0     798
     799     800     801     802     803     804     805     806     799     800
     801     802     803     804     805     806     800     801     802     803
     804     805     806     801     802     803     804     805     806     802
     803     803       0     805     806     806       0     808     809     810
     811     812     813     814     815     816     809     810     811     812
     813     814     815     816     810     811     812     813     814     815
     816     811     812     813     814     815     816     812     813     813
       0     815     816     816       0     818     819     820     821     822
     823     824     825     826     819     820     821     822     823     824
     825     826     820     821     822     823     824     825     826     821
     822     823     824     825     826     822     823     823       0     825
     826     826       0     828     829     830     831     832     833     834
     835     836     829     830     831     832     833     834     835     836
     830     831     832     833     834     835     836     831     832     833
     834     835     836     832     833     833       0     835     836     836
       0     838     839     840     841     842     843     844     845     846
     839     840     841     842     843     844     845     846     840     841
     842     843     844     845     846     841     842     843     844     845
     846     842     843     843       0     845     846     846       0     848
     849     850     851     852     853     854     855     856     849     850
     851     852     853     854     855     856     850     851     852     853
     854     855     856     851     852     853     854     855     856     852
     853     853       0     855     856     856       0     858     859     860
     861     862     863     864     865     866     859     860     861     862
     863     864     865     866     860     861     862     863     864     865
     866     861     862     863     864     865     866     862     863     863
       0     865     866     866       0     868     869     870     871     872
     873     874     875     876     869     870     871     872     873     874
     875     876     870     871     872     873     874     875     876     871
     872     873     874     875     876     872     873     873       0     875
     876     876       0     878     879     880     881     882     883     884
     885     886     879     880     881     882     883     884     885     886
     880     881     882     883     884     885     886     881     882     883
     884     885     886     882     883     883       0     885     886     886
       0     888     889     890     891     892     893     894     895     896
     889     890     891     892     893     894     895     896     890     891
     892     893     894     895     896     891     892     893     894     895
     896     892     893     893       0     895     896     896       0     898
     899     900     901     902     903     904     905     906     899     900
     901     902     903     904     905     906     900     901     902     903
     904     905     906     901     902     903     904     905     906     902
     903     903       0     905     906     906       0     908     909     910
     911     912     913     914     915     916     909     910     911     912
     913     914     915     916     910     911     912     913     914     915
     916     911     912     913     914     915     916     912     913     913
       0     915     916     916       0     918     919     920     921     922
     923     924     925     926     919     920     921     922     923     924
     925     926     920     921     922     923     924     925     926     921
     922     923     924     925     926     922     923     923       0     925
     926     926       0     928     929     930     931     932     933     934
     935     936     929     930     931     932     933     934     935     936
     930     931     932     933     934     935     936     931     932     933
     934     935     936     932     933     933       0     935     936     936
       0     938     939     940     941     942     943     944     945     946
     939     940     941     942     943     944     945     946     940     941
     942     943     944     945     946     941     942     943     944     945
     946     942     943     943       0     945     946     946       0     948
     949     950     951     952     953     954     955     956     949     950
     951     952     953     954     955     956     950     951     952     953
     954     955     956     951     952     953     954     955     956     952
     953     953       0     955     956     956       0     958     959     960
     961     962     963     964     965     966     959     960     961     962
     963     964     965     966     960     961     962     963     964     965
     966     961     962     963     964     965     966     962     963     963
       0     965     966     966       0     968     969     970     971     972
     973     974     975     976     969     970     971     972     973     974
     975     976     970     971     972     973     974     975     976     971
     972     973     974     975     976     972     973     973       0     975
     976     976       0     978     979     980     981     982     983     984
     985     986     979     980     981     982     983     984     985     986
     980     981     982     983     984     985     986     981     982     983
     984     985     986     982     983     983       0     985     986     986
       0     988     989     990     991     992     993     994     995     996
     989     990     991     992     993     994     995     996     990     991
     992     993     994     995     996     991     992     993     994     995
     996     992     993     993       0     995     996     996       0     998
     999    1000    1001    1002    1003    1004    1005    1006     999    1000
    1001    1002    1003    1004    1005    1006    1000    1001    1002    1003
    1004    1005    1006    1001    1002    1003    1004    1005    1006    1002
    1003    1003       0    1005    1006    1006       0    1008    1009    1010
    1011    1012    1013    1014    1015    1016    1009    1010    1011    1012
    1013    1014    1015    1016    1010    1011    1012    1013    1014    1015
    1016    1011    1012    1013    1014    1015    1016    1012    1013    1013
       0    1015    1016    1016       0    1018    1019    1020    1021    1022
    1023    1024    1025    1026    1019    1020    1021    1022    1023    1024
    1025    1026    1020    1021    1022    1023    1024    1025    1026    1021
    1022    1023    1024    1025    1026    1022    1023    1023       0    1025
    1026    1026       0    1028    1029    1030    1031    1032    1033    1034
    1035    1036    1029    1030    1031    1032    1033    1034    1035    1036
    1030    1031    1032    1033    1034    1035    1036    1031    1032    1033
    1034    1035    1036    1032    1033    1033       0    1035    1036    1036
       0    1038    1039    1040    1041    1042    1043    1044    1045    1046
    1039    1040    1041    1042    1043    1044    1045    1046    1040    1041
    1042    1043    1044    1045    1046    1041    1042    1043    1044    1045
    1046    1042    1043    1043       0    1045    1046    1046       0    1048
    1049    1050    1051    1052    1053    1054    1055    1056    1049    1050
    1051    1052    1053    1054    1055    1056    1050    1051    1052    1053
    1054    1055    1056    1051    1052    1053    1054    1055    1056    1052
    1053    1053       0    1055    1056    1056       0    1058    1059    1060
    1061    1062    1063    1064    1065    1066    1059    1060    1061    1062
    1063    1064    1065    1066    1060    1061    1062    1063    1064    1065
    1066    1061    1062    1063    1064    1065    1066    1062    1063    1063
       0    1065    1066    1066       0    1068    1069    1070    1071    1072
    1073    1074    1075    1076    1069    1070    1071    1072    1073    1074
    1075    1076    1070    1071    1072    1073    1074    1075    1076    1071
    1072    1073    1074    1075    1076    1072    1073    1073       0    1075
    1076    1076       0    1078    1079    1080    1081    1082    1083    1084
    1085    1086    1079    1080    1081    1082    1083    1084    1085    1086
    1080    1081    1082    1083    1084    1085    1086    1081    1082    1083
    1084    1085    1086    1082    1083    1083       0    1085    1086    1086
       0    1088    1089    1090    1091    1092    1093    1094    1095    1096
    1089    1090    1091    1092    1093    1094    1095    1096    1090    1091
    1092    1093    1094    1095    1096    1091    1092    1093    1094    1095
    1096    1092    1093    1093       0    1095    1096    1096       0    1098
    1099    1100    1101    1102    1103    1104    1105    1106    1099    1100
    1101    1102    1103    1104    1105    1106    1100    1101    1102    1103
    1104    1105    1106    1101    1102    1103    1104    1105    1106    1102
    1103    1103       0    1105    1106    1106       0    1108    1109    1110
    1111    1112    1113    1114    1115    1116    1109    1110    1111    1112
    1113    1114    1115    1116    1110    1111    1112    1113    1114    1115
    1116    1111    1112    1113    1114    1115    1116    1112    1113    1113
       0    1115    1116    1116       0    1118    1119    1120    1121    1122
    1123    1124    1125    1126    1119    1120    1121    1122    1123    1124
    1125    1126    1120    1121    1122    1123    1124    1125    1126    1121
    1122    1123    1124    1125    1126    1122    1123    1123       0    1125
    1126    1126       0    1128    1129    1130    1131    1132    1133    1134
    1135    1136    1129    1130    1131    1132    1133    1134    1135    1136
    1130    1131    1132    1133    1134    1135    1136    1131    1132    1133
    1134    1135    1136    1132    1133    1133       0    1135    1136    1136
       0    1138    1139    1140    1141    1142    1143    1144    1145    1146
    1139    1140    1141    1142    1143    1144    1145    1146    1140    1141
    1142    1143    1144    1145    1146    1141    1142    1143    1144    1145
    1146    1142    1143    1143       0    1145    1146    1146       0    1148
    1149    1150    1151    1152    1153    1154    1155    1156    1149    1150
    1151    1152    1153    1154    1155    1156    1150    1151    1152    1153
    1154    1155    1156    1151    1152    1153    1154    1155    1156    1152
    1153    1153       0    1155    1156    1156       0    1158    1159    1160
    1161    1162    1163    1164    1165    1166    1159    1160    1161    1162
    1163    1164    1165    1166    1160    1161    1162    1163    1164    1165
    1166    1161    1162    1163    1164    1165    1166    1162    1163    1163
       0    1165    1166    1166       0    1168    1169    1170    1171    1172
    1173    1174    1175    1176    1169    1170    1171    1172    1173    1174
    1175    1176    1170    1171    1172    1173    1174    1175    1176    1171
    1172    1173    1174    1175    1176    1172    1173    1173       0    1175
    1176    1176       0    1178    1179    1180    1181    1182    1183    1184
    1185    1186    1179    1180    1181    1182    1183    1184    1185    1186
    1180    1181    1182    1183    1184    1185    1186    1181    1182    1183
    1184    1185    1186    1182    1183    1183       0    1185    1186    1186
       0    1188    1189    1190    1191    1192    1193    1194    1195    1196
    1189    1190    1191    1192    1193    1194    1195    1196    1190    1191
    1192    1193    1194    1195    1196    1191    1192    1193    1194    1195
    1196    1192    1193    1193       0    1195    1196    1196       0    1198
    1199    1200    1201    1202    1203    1204    1205    1206    1199    1200
    1201    1202    1203    1204    1205    1206    1200    1201    1202    1203
    1204    1205    1206    1201    1202    1203    1204    1205    1206    1202
    1203    1203       0    1205    1206    1206       0    1208    1209    1210
    1211    1212    1213    1214    1215    1216    1209    1210    1211    1212
    1213    1214    1215    1216    1210    1211    1212    1213    1214    1215
    1216    1211    1212    1213    1214    1215    1216    1212    1213    1213
       0    1215    1216    1216       0    1218    1219    1220    1221    1222
    1223    1224    1225    1226    1219    1220    1221    1222    1223    1224
    1225    1226    1220    1221    1222    1223    1224    1225    1226    1221
    1222    1223    1224    1225    1226    1222    1223    1223       0    1225
    1226    1226       0    1228    1229    1230    1231    1232    1233    1234
    1235    1236    1229    1230    1231    1232    1233    1234    1235    1236
    1230    1231    1232    1233    1234    1235    1236    1231    1232    1233
    1234    1235    1236    1232    1233    1233       0    1235    1236    1236
       0    1238    1239    1240    1241    1242    1243    1244    1245    1246
    1239    1240    1241    1242    1243    1244    1245    1246    1240    1241
    1242    1243    1244    1245    1246    1241    1242    1243    1244    1245
    1246    1242    1243    1243       0    1245    1246    1246       0    1248
    1249    1250    1251    1252    1253    1254    1255    1256    1249    1250
    1251    1252    1253    1254    1255    1256    1250    1251    1252    1253
    1254    1255    1256    1251    1252    1253    1254    1255    1256    1252
    1253    1253       0    1255    1256    1256       0    1258    1259    1260
    1261    1262    1263    1264    1265    1266    1259    1260    1261    1262
    1263    1264    1265    1266    1260    1261    1262    1263    1264    1265
    1266    1261    1262    1263    1264    1265    1266    1262    1263    1263
       0    1265    1266    1266       0    1268    1269    1270    1271    1272
    1273    1274    1275    1276    1269    1270    1271    1272    1273    1274
    1275    1276    1270    1271    1272    1273    1274    1275    1276    1271
    1272    1273    1274    1275    1276    1272    1273    1273       0    1275
    1276    1276       0    1278    1279    1280    1281    1282    1283    1284
    1285    1286    1279    1280    1281    1282    1283    1284    1285    1286
    1280    1281    1282    1283    1284    1285    1286    1281    1282    1283
    1284    1285    1286    1282    1283    1283       0    1285    1286    1286
       0    1288    1289    1290    1291    1292    1293    1294    1295    1296
    1289    1290    1291    1292    1293    1294    1295    1296    1290    1291
    1292    1293    1294    1295    1296    1291    1292    1293    1294    1295
    1296    1292    1293    1293       0    1295    1296    1296       0    1298
    1299    1300    1301    1302    1303    1304    1305    1306    1299    1300
    1301    1302    1303    1304    1305    1306    1300    1301    1302    1303
    1304    1305    1306    1301    1302    1303    1304    1305    1306    1302
    1303    1303       0    1305    1306    1306       0    1308    1309    1310
    1311    1312    1313    1314    1315    1316    1309    1310    1311    1312
    1313    1314    1315    1316    1310    1311    1312    1313    1314    1315
    1316    1311    1312    1313    1314    1315    1316    1312    1313    1313
       0    1315    1316    1316       0    1318    1319    1320    1321    1322
    1323    1324    1325    1326    1319    1320    1321    1322    1323    1324
    1325    1326    1320    1321    1322    1323    1324    1325    1326    1321
    1322    1323    1324    1325    1326    1322    1323    1323       0    1325
    1326    1326       0    1328    1329    1330    1331    1332    1333    1334
    1335    1336    1329    1330    1331    1332    1333    1334    1335    1336
    1330    1331    1332    1333    1334    1335    1336    1331    1332    1333
    1334    1335    1336    1332    1333    1333       0    1335    1336    1336
       0    1338    1339    1340    1341    1342    1343    1344    1345    1346
    1339    1340    1341    1342    1343    1344    1345    1346    1340    1341
    1342    1343    1344    1345    1346    1341    1342    1343    1344    1345
    1346    1342    1343    1343       0    1345    1346    1346       0    1348
    1349    1350    1351    1352    1353    1354    1355    1356    1349    1350
    1351    1352    1353    1354    1355    1356    1350    1351    1352    1353
    1354    1355    1356    1351    1352    1353    1354    1355    1356    1352
    1353    1353       0    1355    1356    1356       0    1358    1359    1360
    1361    1362    1363    1364    1365    1366    1359    1360    1361    1362
    1363    1364    1365    1366    1360    1361    1362    1363    1364    1365
    1366    1361    1362    1363    1364    1365    1366    1362    1363    1363
       0    1365    1366    1366       0    1368    1369    1370    1371    1372
    1373    1374    1375    1376    1369    1370    1371    1372    1373    1374
    1375    1376    1370    1371    1372    1373    1374    1375    1376    1371
    1372    1373    1374    1375    1376    1372    1373    1373       0    1375
    1376    1376       0    1378    1379    1380    1381    1382    1383    1384
    1385    1386    1379    1380    1381    1382    1383    1384    1385    1386
    1380    1381    1382    1383    1384    1385    1386    1381    1382    1383
    1384    1385    1386    1382    1383    1383       0    1385    1386    1386
       0    1388    1389    1390    1391    1392    1393    1394    1395    1396
    1389    1390    1391    1392    1393    1394    1395    1396    1390    1391
    1392    1393    1394    1395    1396    1391    1392    1393    1394    1395
    1396    1392    1393    1393       0    1395    1396    1396       0    1398
    1399    1400    1401    1402    1403    1404    1405    1406    1399    1400
    1401    1402    1403    1404    1405    1406    1400    1401    1402    1403
    1404    1405    1406    1401    1402    1403    1404    1405    1406    1402
    1403    1403       0    1405    1406    1406       0    1408    1409    1410
    1411    1412    1413    1414    1415    1416    1409    1410    1411    1412
    1413    1414    1415    1416    1410    1411    1412    1413    1414    1415
    1416    1411    1412    1413    1414    1415    1416    1412    1413    1413
       0    1415    1416    1416       0    1418    1419    1420    1421    1422
    1423    1424    1425    1426    1419    1420    1421    1422    1423    1424
    1425    1426    1420    1421    1422    1423    1424    1425    1426    1421
    1422    1423    1424    1425    1426    1422    1423    1423       0    1425
    1426    1426       0    1428    1429    1430    1431    1432    1433    1434
    1435    1436    1429    1430    1431    1432    1433    1434    1435    1436
    1430    1431    1432    1433    1434    1435    1436    1431    1432    1433
    1434    1435    1436    1432    1433    1433       0    1435    1436    1436
       0    1438    1439    1440    1441    1442    1443    1444    1445    1446
    1439    1440    1441    1442    1443    1444    1445    1446    1440    1441
    1442    1443    1444    1445    1446    1441    1442    1443    1444    1445
    1446    1442    1443    1443       0    1445    1446    1446       0    1448
    1449    1450    1451    1452    1453    1454    1455    1456    1449    1450
    1451    1452    1453    1454    1455    1456    1450    1451    1452    1453
    1454    1455    1456    1451    1452    1453    1454    1455    1456    1452
    1453    1453       0    1455    1456    1456       0    1458    1459    1460
    1461    1462    1463    1464    1465    1466    1459    1460    1461    1462
    1463    1464    1465    1466    1460    1461    1462    1463    1464    1465
    1466    1461    1462    1463    1464    1465    1466    1462    1463    1463
       0    1465    1466    1466       0    1468    1469    1470    1471    1472
    1473    1474    1475    1476    1469    1470    1471    1472    1473    1474
    1475    1476    1470    1471    1472    1473    1474    1475    1476    1471
    1472    1473    1474    1475    1476    1472    1473    1473       0    1475
    1476    1476       0    1478    1479    1480    1481    1482    1483    1484
    1485    1486    1479    1480    1481    1482    1483    1484    1485    1486
    1480    1481    1482    1483    1484    1485    1486    1481    1482    1483
    1484    1485    1486    1482    1483    1483       0    1485    1486    1486
       0    1488    1489    1490    1491    1492    1493    1494    1495    1496
    1489    1490    1491    1492    1493    1494    1495    1496    1490    1491
    1492    1493    1494    1495    1496    1491    1492    1493    1494    1495
    1496    1492    1493    1493       0    1495    1496    1496       0    1498
    1499    1500    1501    1502    1503    1504    1505    1506    1499    1500
    1501    1502    1503    1504    1505    1506    1500    1501    1502    1503
    1504    1505    1506    1501    1502    1503    1504    1505    1506    1502
    1503    1503       0    1505    1506    1506       0    1508    1509    1510
    1511    1512    1513    1514    1515    1516    1509    1510    1511    1512
    1513    1514    1515    1516    1510    1511    1512    1513    1514    1515
    1516    1511    1512    1513    1514    1515    1516    1512    1513    1513
       0    1515    1516    1516       0    1518    1519    1520    1521    1522
    1523    1524    1525    1526    1519    1520    1521    1522    1523    1524
    1525    1526    1520    1521    1522    1523    1524    1525    1526    1521
    1522    1523    1524    1525    1526    1522    1523    1523       0    1525
    1526    1526       0    1528    1529    1530    1531    1532    1533    1534
    1535    1536    1529    1530    1531    1532    1533    1534    1535    1536
    1530    1531    1532    1533    1534    1535    1536    1531    1532    1533
    1534    1535    1536    1532    1533    1533       0    1535    1536    1536
       0    1538    1539    1540    1541    1542    1543    1544    1545    1546
    1539    1540    1541    1542    1543    1544    1545    1546    1540    1541
    1542    1543    1544    1545    1546    1541    1542    1543    1544    1545
    1546    1542    1543    1543       0    1545    1546    1546       0    1548
    1549    1550    1551    1552    1553    1554    1555    1556    1549    1550
    1551    1552    1553    1554    1555    1556    1550    1551    1552    1553
    1554    1555    1556    1551    1552    1553    1554    1555    1556    1552
    1553    1553       0    1555    1556    1556       0    1558    1559    1560
    1561    1562    1563    1564    1565    1566    1559    1560    1561    1562
    1563    1564    1565    1566    1560    1561    1562    1563    1564    1565
    1566    1561    1562    1563    1564    1565    1566    1562    1563    1563
       0    1565    1566    1566       0    1568    1569    1570    1571    1572
    1573    1574    1575    1576    1569    1570    1571    1572    1573    1574
    1575    1576    1570    1571    1572    1573    1574    1575    1576    1571
    1572    1573    1574    1575    1576    1572    1573    1573       0    1575
    1576    1576       0    1578    1579    1580    1581    1582    1583    1584
    1585    1586    1579    1580    1581    1582    1583    1584    1585    1586
    1580    1581    1582    1583    1584    1585    1586    1581    1582    1583
    1584    1585    1586    1582    1583    1583       0    1585    1586    1586
       0    1588    1589    1590    1591    1592    1593    1594    1595    1596
    1589    1590    1591    1592    1593    1594    1595    1596    1590    1591
    1592    1593    1594    1595    1596    1591    1592    1593    1594    1595
    1596    1592    1593    1593       0    1595    1596    1596       0    1598
    1599    1600    1601    1602    1603    1604    1605    1606    1599    1600
    1601    1602    1603    1604    1605    1606    1600    1601    1602    1603
    1604    1605    1606    1601    1602    1603    1604    1605    1606    1602
    1603    1603       0    1605    1606    1606       0    1608    1609    1610
    1611    1612    1613    1614    1615    1616    1609    1610    1611    1612
    1613    1614    1615    1616    1610    1611    1612    1613    1614    1615
    1616    1611    1612    1613    1614    1615    1616    1612    1613    1613
       0    1615    1616    1616       0    1618    1619    1620    1621    1622
    1623    1624    1625    1626    1619    1620    1621    1622    1623    1624
    1625    1626    1620    1621    1622    1623    1624    1625    1626    1621
    1622    1623    1624    1625    1626    1622    1623    1623       0    1625
    1626    1626       0    1628    1629    1630    1631    1632    1633    1634
    1635    1636    1629    1630    1631    1632    1633    1634    1635    1636
    1630    1631    1632    1633    1634    1635    1636    1631    1632    1633
    1634    1635    1636    1632    1633    1633       0    1635    1636    1636
       0    1638    1639    1640    1641    1642    1643    1644    1645    1646
    1639    1640    1641    1642    1643    1644    1645    1646    1640    1641
    1642    1643    1644    1645    1646    1641    1642    1643    1644    1645
    1646    1642    1643    1643       0    1645    1646    1646       0    1648
    1649    1650    1651    1652    1653    1654    1655    1656    1649    1650
    1651    1652    1653    1654    1655    1656    1650    1651    1652    1653
    1654    1655    1656    1651    1652    1653    1654    1655    1656    1652
    1653    1653       0    1655    1656    1656       0    1658    1659    1660
    1661    1662    1663    1664    1665    1666    1659    1660    1661    1662
    1663    1664    1665    1666    1660    1661    1662    1663    1664    1665
    1666    1661    1662    1663    1664    1665    1666    1662    1663    1663
       0    1665    1666    1666       0    1668    1669    1670    1671    1672
    1673    1674    1675    1676    1669    1670    1671    1672    1673    1674
    1675    1676    1670    1671    1672    1673    1674    1675    1676    1671
    1672    1673    1674    1675    1676    1672    1673    1673       0    1675
    1676    1676       0    1678    1679    1680    1681    1682    1683    1684
    1685    1686    1679    1680    1681    1682    1683    1684    1685    1686
    1680    1681    1682    1683    1684    1685    1686    1681    1682    1683
    1684    1685    1686    1682    1683    1683       0    1685    1686    1686
       0    1688    1689    1690    1691    1692    1693    1694    1695    1696
    1689    1690    1691    1692    1693    1694    1695    1696    1690    1691
    1692    1693    1694    1695    1696    1691    1692    1693    1694    1695
    1696    1692    1693    1693       0    1695    1696    1696       0    1698
    1699    1700    1701    1702    1703    1704    1705    1706    1699    1700
    1701    1702    1703    1704    1705    1706    1700    1701    1702    1703
    1704    1705    1706    1701    1702    1703    1704    1705    1706    1702
    1703    1703       0    1705    1706    1706       0    1708    1709    1710
    1711    1712    1713    1714    1715    1716    1709    1710    1711    1712
    1713    1714    1715    1716    1710    1711    1712    1713    1714    1715
    1716    1711    1712    1713    1714    1715    1716    1712    1713    1713
       0    1715    1716    1716       0    1718    1719    1720    1721    1722
    1723    1724    1725    1726    1719    1720    1721    1722    1723    1724
    1725    1726    1720    1721    1722    1723    1724    1725    1726    1721
    1722    1723    1724    1725    1726    1722    1723    1723       0    1725
    1726    1726       0    1728    1729    1730    1731    1732    1733    1734
    1735    1736    1729    1730    1731    1732    1733    1734    1735    1736
    1730    1731    1732    1733    1734    1735    1736    1731    1732    1733
    1734    1735    1736    1732    1733    1733       0    1735    1736    1736
       0    1738    1739    1740    1741    1742    1743    1744    1745    1746
    1739    1740    1741    1742    1743    1744    1745    1746    1740    1741
    1742    1743    1744    1745    1746    1741    1742    1743    1744    1745
    1746    1742    1743    1743       0    1745    1746    1746       0    1748
    1749    1750    1751    1752    1753    1754    1755    1756    1749    1750
    1751    1752    1753    1754    1755    1756    1750    1751    1752    1753
    1754    1755    1756    1751    1752    1753    1754    1755    1756    1752
    1753    1753       0    1755    1756    1756       0    1758    1759    1760
    1761    1762    1763    1764    1765    1766    1759    1760    1761    1762
    1763    1764    1765    1766    1760    1761    1762    1763    1764    1765
    1766    1761    1762    1763    1764    1765    1766    1762    1763    1763
       0    1765    1766    1766       0    1768    1769    1770    1771    1772
    1773    1774    1775    1776    1769    1770    1771    1772    1773    1774
    1775    1776    1770    1771    1772    1773    1774    1775    1776    1771
    1772    1773    1774    1775    1776    1772    1773    1773       0    1775
    1776    1776       0    1778    1779    1780    1781    1782    1783    1784
    1785    1786    1779    1780    1781    1782    1783    1784    1785    1786
    1780    1781    1782    1783    1784    1785    1786    1781    1782    1783
    1784    1785    1786    1782    1783    1783       0    1785    1786    1786
       0    1788    1789    1790    1791    1792    1793    1794    1795    1796
    1789    1790    1791    1792    1793    1794    1795    1796    1790    1791
    1792    1793    1794    1795    1796    1791    1792    1793    1794    1795
    1796    1792    1793    1793       0    1795    1796    1796       0    1798
    1799    1800    1801    1802    1803    1804    1805    1806    1799    1800
    1801    1802    1803    1804    1805    1806    1800    1801    1802    1803
    1804    1805    1806    1801    1802    1803    1804    1805    1806    1802
    1803    1803       0    1805    1806    1806       0    1808    1809    1810
    1811    1812    1813    1814    1815    1816    1809    1810    1811    1812
    1813    1814    1815    1816    1810    1811    1812    1813    1814    1815
    1816    1811    1812    1813    1814    1815    1816    1812    1813    1813
       0    1815    1816    1816       0    1818    1819    1820    1821    1822
    1823    1824    1825    1826    1819    1820    1821    1822    1823    1824
    1825    1826    1820    1821    1822    1823    1824    1825    1826    1821
    1822    1823    1824    1825    1826    1822    1823    1823       0    1825
    1826    1826       0    1828    1829    1830    1831    1832    1833    1834
    1835    1836    1829    1830    1831    1832    1833    1834    1835    1836
    1830    1831    1832    1833    1834    1835    1836    1831    1832    1833
    1834    1835    1836    1832    1833    1833       0    1835    1836    1836
       0    1838    1839    1840    1841    1842    1843    1844    1845    1846
    1839    1840    1841    1842    1843    1844    1845    1846    1840    1841
    1842    1843    1844    1845    1846    1841    1842    1843    1844    1845
    1846    1842    1843    1843       0    1845    1846    1846       0    1848
    1849    1850    1851    1852    1853    1854    1855    1856    1849    1850
    1851    1852    1853    1854    1855    1856    1850    1851    1852    1853
    1854    1855    1856    1851    1852    1853    1854    1855    1856    1852
    1853    1853       0    1855    1856    1856       0    1858    1859    1860
    1861    1862    1863    1864    1865    1866    1859    1860    1861    1862
    1863    1864    1865    1866    1860    1861    1862    1863    1864    1865
    1866    1861    1862    1863    1864    1865    1866    1862    1863    1863
       0    1865    1866    1866       0    1868    1869    1870    1871    1872
    1873    1874    1875    1876    1869    1870    1871    1872    1873    1874
    1875    1876    1870    1871    1872    1873    1874    1875    1876    1871
    1872    1873    1874    1875    1876    1872    1873    1873       0    1875
    1876    1876       0    1878    1879    1880    1881    1882    1883    1884
    1885    1886    1879    1880    1881    1882    1883    1884    1885    1886
    1880    1881    1882    1883    1884    1885    1886    1881    1882    1883
    1884    1885    1886    1882    1883    1883       0    1885    1886    1886
       0    1888    1889    1890    1891    1892    1893    1894    1895    1896
    1889    1890    1891    1892    1893    1894    1895    1896    1890    1891
    1892    1893    1894    1895    1896    1891    1892    1893    1894    1895
    1896    1892    1893    1893       0    1895    1896    1896       0    1898
    1899    1900    1901    1902    1903    1904    1905    1906    1899    1900
    1901    1902    1903    1904    1905    1906    1900    1901    1902    1903
    1904    1905    1906    1901    1902    1903    1904    1905    1906    1902
    1903    1903       0    1905    1906    1906       0    1908    1909    1910
    1911    1912    1913    1914    1915    1916    1909    1910    1911    1912
    1913    1914    1915    1916    1910    1911    1912    1913    1914    1915
    1916    1911    1912    1913    1914    1915    1916    1912    1913    1913
       0    1915    1916    1916       0    1918    1919    1920    1921    1922
    1923    1924    1925    1926    1919    1920    1921    1922    1923    1924
    1925    1926    1920    1921    1922    1923    1924    1925    1926    1921
    1922    1923    1924    1925    1926    1922    1923    1923       0    1925
    1926    1926       0    1928    1929    1930    1931    1932    1933    1934
    1935    1936    1929    1930    1931    1932    1933    1934    1935    1936
    1930    1931    1932    1933    1934    1935    1936    1931    1932    1933
    1934    1935    1936    1932    1933    1933       0    1935    1936    1936
       0    1938    1939    1940    1941    1942    1943    1944    1945    1946
    1939    1940    1941    1942    1943    1944    1945    1946    1940    1941
    1942    1943    1944    1945    1946    1941    1942    1943    1944    1945
    1946    1942    1943    1943       0    1945    1946    1946       0    1948
    1949    1950    1951    1952    1953    1954    1955    1956    1949    1950
    1951    1952    1953    1954    1955    1956    1950    1951    1952    1953
    1954    1955    1956    1951    1952    1953    1954    1955    1956    1952
    1953    1953       0    1955    1956    1956       0    1958    1959    1960
    1961    1962    1963    1964    1965    1966    1959    1960    1961    1962
    1963    1964    1965    1966    1960    1961    1962    1963    1964    1965
    1966    1961    1962    1963    1964    1965    1966    1962    1963    1963
       0    1965    1966    1966       0    1968    1969    1970    1971    1972
    1973    1974    1975    1976    1969    1970    1971    1972    1973    1974
    1975    1976    1970    1971    1972    1973    1974    1975    1976    1971
    1972    1973    1974    1975    1976    1972    1973    1973       0    1975
    1976    1976       0    1978    1979    1980    1981    1982    1983    1984
    1985    1986    1979    1980    1981    1982    1983    1984    1985    1986
    1980    1981    1982    1983    1984    1985    1986    1981    1982    1983
    1984    1985    1986    1982    1983    1983       0    1985    1986    1986
       0    1988    1989    1990    1991    1992    1993    1994    1995    1996
    1989    1990    1991    1992    1993    1994    1995    1996    1990    1991
    1992    1993    1994    1995    1996    1991    1992    1993    1994    1995
    1996    1992    1993    1993       0    1995    1996    1996       0    1998
    1999    2000    2001    2002    2003    2004    2005    2006    1999    2000
    2001    2002    2003    2004    2005    2006    2000    2001    2002    2003
    2004    2005    2006    2001    2002    2003    2004    2005    2006    2002
    2003    2003       0    2005    2006    2006       0    2008    2009    2010
    2011    2012    2013    2014    2015    2016    2009    2010    2011    2012
    2013    2014    2015    2016    2010    2011    2012    2013    2014    2015
    2016    2011    2012    2013    2014    2015    2016    2012    2013    2013
       0    2015    2016    2016       0    2018    2019    2020    2021    2022
    2023    2024    2025    2026    2019    2020    2021    2022    2023    2024
    2025    2026    2020    2021    2022    2023    2024    2025    2026    2021
    2022    2023    2024    2025    2026    2022    2023    2023       0    2025
    2026    2026       0    2028    2029    2030    2031    2032    2033    2034
    2035    2036    2029    2030    2031    2032    2033    2034    2035    2036
    2030    2031    2032    2033    2034    2035    2036    2031    2032    2033
    2034    2035    2036    2032    2033    2033       0    2035    2036    2036
       0    2038    2039    2040    2041    2042    2043    2044    2045    2046
    2039    2040    2041    2042    2043    2044    2045    2046    2040    2041
    2042    2043    2044    2045    2046    2041    2042    2043    2044    2045
    2046    2042    2043    2043       0    2045    2046    2046       0    2048
    2049    2050    2051    2052    2053    2054    2055    2056    2049    2050
    2051    2052    2053    2054    2055    2056    2050    2051    2052    2053
    2054    2055    2056    2051    2052    2053    2054    2055    2056    2052
    2053    2053       0    2055    2056    2056       0    2058    2059    2060
    2061    2062    2063    2064    2065    2066    2059    2060    2061    2062
    2063    2064    2065    2066    2060    2061    2062    2063    2064    2065
    2066    2061    2062    2063    2064    2065    2066    2062    2063    2063
       0    2065    2066    2066       0    2068    2069    2070    2071    2072
    2073    2074    2075    2076    2069    2070    2071    2072    2073    2074
    2075    2076    2070    2071    2072    2073    2074    2075    2076    2071
    2072    2073    2074    2075    2076    2072    2073    2073       0    2075
    2076    2076       0    2078    2079    2080    2081    2082    2083    2084
    2085    2086    2079    2080    2081    2082    2083    2084    2085    2086
    2080    2081    2082    2083    2084    2085    2086    2081    2082    2083
    2084    2085    2086    2082    2083    2083       0    2085    2086    2086
       0    2088    2089    2090    2091    2092    2093    2094    2095    2096
    2089    2090    2091    2092    2093    2094    2095    2096    2090    2091
    2092    2093    2094    2095    2096    2091    2092    2093    2094    2095
    2096    2092    2093    2093       0    2095    2096    2096       0    2098
    2099    2100    2101    2102    2103    2104    2105    2106    2099    2100
    2101    2102    2103    2104    2105    2106    2100    2101    2102    2103
    2104    2105    2106    2101    2102    2103    2104    2105    2106    2102
    2103    2103       0    2105    2106    2106       0    2108    2109    2110
    2111    2112    2113    2114    2115    2116    2109    2110    2111    2112
    2113    2114    2115    2116    2110    2111    2112    2113    2114    2115
    2116    2111    2112    2113    2114    2115    2116    2112    2113    2113
       0    2115    2116    2116       0    2118    2119    2120    2121    2122
    2123    2124    2125    2126    2119    2120    2121    2122    2123    2124
    2125    2126    2120    2121    2122    2123    2124    2125    2126    2121
    2122    2123    2124    2125    2126    2122    2123    2123       0    2125
    2126    2126       0    2128    2129    2130    2131    2132    2133    2134
    2135    2136    2129    2130    2131    2132    2133    2134    2135    2136
    2130    2131    2132    2133    2134    2135    2136    2131    2132    2133
    2134    2135    2136    2132    2133    2133       0    2135    2136    2136
       0    2138    2139    2140    2141    2142    2143    2144    2145    2146
    2139    2140    2141    2142    2143    2144    2145    2146    2140    2141
    2142    2143    2144    2145    2146    2141    2142    2143    2144    2145
    2146    2142    2143    2143       0    2145    2146    2146       0    2148
    2149    2150    2151    2152    2153    2154    2155    2156    2149    2150
    2151    2152    2153    2154    2155    2156    2150    2151    2152    2153
    2154    2155    2156    2151    2152    2153    2154    2155    2156    2152
    2153    2153       0    2155    2156    2156       0    2158    2159    2160
    2161    2162    2163    2164    2165    2166    2159    2160    2161    2162
    2163    2164    2165    2166    2160    2161    2162    2163    2164    2165
    2166    2161    2162    2163    2164    2165    2166    2162    2163    2163
       0    2165    2166    2166       0    2168    2169    2170    2171    2172
    2173    2174    2175    2176    2169    2170    2171    2172    2173    2174
    2175    2176    2170    2171    2172    2173    2174    2175    2176    2171
    2172    2173    2174    2175    2176    2172    2173    2173       0    2175
    2176    2176       0    2178    2179    2180    2181    2182    2183    2184
    2185    2186    2179    2180    2181    2182    2183    2184    2185    2186
    2180    2181    2182    2183    2184    2185    2186    2181    2182    2183
    2184    2185    2186    2182    2183    2183       0    2185    2186    2186
       0    2188    2189    2190    2191    2192    2193    2194    2195    2196
    2189    2190    2191    2192    2193    2194    2195    2196    2190    2191
    2192    2193    2194    2195    2196    2191    2192    2193    2194    2195
    2196    2192    2193    2193       0    2195    2196    2196       0    2198
    2199    2200    2201    2202    2203    2204    2205    2206    2199    2200
    2201    2202    2203    2204    2205    2206    2200    2201    2202    2203
    2204    2205    2206    2201    2202    2203    2204    2205    2206    2202
    2203    2203       0    2205    2206    2206       0    2208    2209    2210
    2211    2212    2213    2214    2215    2216    2209    2210    2211    2212
    2213    2214    2215    2216    2210    2211    2212    2213    2214    2215
    2216    2211    2212    2213    2214    2215    2216    2212    2213    2213
       0    2215    2216    2216       0    2218    2219    2220    2221    2222
    2223    2224    2225    2226    2219    2220    2221    2222    2223    2224
    2225    2226    2220    2221    2222    2223    2224    2225    2226    2221
    2222    2223    2224    2225    2226    2222    2223    2223       0    2225
    2226    2226       0    2228    2229    2230    2231    2232    2233    2234
    2235    2236    2229    2230    2231    2232    2233    2234    2235    2236
    2230    2231    2232    2233    2234    2235    2236    2231    2232    2233
    2234    2235    2236    2232    2233    2233       0    2235    2236    2236
       0    2238    2239    2240    2241    2242    2243    2244    2245    2246
    2239    2240    2241    2242    2243    2244    2245    2246    2240    2241
    2242    2243    2244    2245    2246    2241    2242    2243    2244    2245
    2246    2242    2243    2243       0    2245    2246    2246       0    2248
    2249    2250    2251    2252    2253    2254    2255    2256    2249    2250
    2251    2252    2253    2254    2255    2256    2250    2251    2252    2253
    2254    2255    2256    2251    2252    2253    2254    2255    2256    2252
    2253    2253       0    2255    2256    2256       0    2258    2259    2260
    2261    2262    2263    2264    2265    2266    2259    2260    2261    2262
    2263    2264    2265    2266    2260    2261    2262    2263    2264    2265
    2266    2261    2262    2263    2264    2265    2266    2262    2263    2263
       0    2265    2266    2266       0    2268    2269    2270    2271    2272
    2273    2274    2275    2276    2269    2270    2271    2272    2273    2274
    2275    2276    2270    2271    2272    2273    2274    2275    2276    2271
    2272    2273    2274    2275    2276    2272    2273    2273       0    2275
    2276    2276       0    2278    2279    2280    2281    2282    2283    2284
    2285    2286    2279    2280    2281    2282    2283    2284    2285    2286
    2280    2281    2282    2283    2284    2285    2286    2281    2282    2283
    2284    2285    2286    2282    2283    2283       0    2285    2286    2286
       0    2288    2289    2290    2291    2292    2293    2294    2295    2296
    2289    2290    2291    2292    2293    2294    2295    2296    2290    2291
    2292    2293    2294    2295    2296    2291    2292    2293    2294    2295
    2296    2292    2293    2293       0    2295    2296    2296       0    2298
    2299    2300    2301    2302    2303    2304    2305    2306    2299    2300
    2301    2302    2303    2304    2305    2306    2300    2301    2302    2303
    2304    2305    2306    2301    2302    2303    2304    2305    2306    2302
    2303    2303       0    2305    2306    2306       0    2308    2309    2310
    2311    2312    2313    2314    2315    2316    2309    2310    2311    2312
    2313    2314    2315    2316    2310    2311    2312    2313    2314    2315
    2316    2311    2312    2313    2314    2315    2316    2312    2313    2313
       0    2315    2316    2316       0    2318    2319    2320    2321    2322
    2323    2324    2325    2326    2319    2320    2321    2322    2323    2324
    2325    2326    2320    2321    2322    2323    2324    2325    2326    2321
    2322    2323    2324    2325    2326    2322    2323    2323       0    2325
    2326    2326       0    2328    2329    2330    2331    2332    2333    2334
    2335    2336    2329    2330    2331    2332    2333    2334    2335    2336
    2330    2331    2332    2333    2334    2335    2336    2331    2332    2333
    2334    2335    2336    2332    2333    2333       0    2335    2336    2336
       0    2338    2339    2340    2341    2342    2343    2344    2345    2346
    2339    2340    2341    2342    2343    2344    2345    2346    2340    2341
    2342    2343    2344    2345    2346    2341    2342    2343    2344    2345
    2346    2342    2343    2343       0    2345    2346    2346       0    2348
    2349    2350    2351    2352    2353    2354    2355    2356    2349    2350
    2351    2352    2353    2354    2355    2356    2350    2351    2352    2353
    2354    2355    2356    2351    2352    2353    2354    2355    2356    2352
    2353    2353       0    2355    2356    2356       0    2358    2359    2360
    2361    2362    2363    2364    2365    2366    2359    2360    2361    2362
    2363    2364    2365    2366    2360    2361    2362    2363    2364    2365
    2366    2361    2362    2363    2364    2365    2366    2362    2363    2363
       0    2365    2366    2366       0    2368    2369    2370    2371    2372
    2373    2374    2375    2376    2369    2370    2371    2372    2373    2374
    2375    2376    2370    2371    2372    2373    2374    2375    2376    2371
    2372    2373    2374    2375    2376    2372    2373    2373       0    2375
    2376    2376       0    2378    2379    2380    2381    2382    2383    2384
    2385    2386    2379    2380    2381    2382    2383    2384    2385    2386
    2380    2381    2382    2383    2384    2385    2386    2381    2382    2383
    2384    2385    2386    2382    2383    2383       0    2385    2386    2386
       0    2388    2389    2390    2391    2392    2393    2394    2395    2396
    2389    2390    2391    2392    2393    2394    2395    2396    2390    2391
    2392    2393    2394    2395    2396    2391    2392    2393    2394    2395
    2396    2392    2393    2393       0    2395    2396    2396       0    2398
    2399    2400    2401    2402    2403    2404    2405    2406    2399    2400
    2401    2402    2403    2404    2405    2406    2400    2401    2402    2403
    2404    2405    2406    2401    2402    2403    2404    2405    2406    2402
    2403    2403       0    2405    2406    2406       0    2408    2409    2410
    2411    2412    2413    2414    2415    2416    2409    2410    2411    2412
    2413    2414    2415    2416    2410    2411    2412    2413    2414    2415
    2416    2411    2412    2413    2414    2415    2416    2412    2413    2413
       0    2415    2416    2416       0    2418    2419    2420    2421    2422
    2423    2424    2425    2426    2419    2420    2421    2422    2423    2424
    2425    2426    2420    2421    2422    2423    2424    2425    2426    2421
    2422    2423    2424    2425    2426    2422    2423    2423       0    2425
    2426    2426       0    2428    2429    2430    2431    2432    2433    2434
    2435    2436    2429    2430    2431    2432    2433    2434    2435    2436
    2430    2431    2432    2433    2434    2435    2436    2431    2432    2433
    2434    2435    2436    2432    2433    2433       0    2435    2436    2436
       0    2438    2439    2440    2441    2442    2443    2444    2445    2446
    2439    2440    2441    2442    2443    2444    2445    2446    2440    2441
    2442    2443    2444    2445    2446    2441    2442    2443    2444    2445
    2446    2442    2443    2443       0    2445    2446    2446       0    2448
    2449    2450    2451    2452    2453    2454    2455    2456    2449    2450
    2451    2452    2453    2454    2455    2456    2450    2451    2452    2453
    2454    2455    2456    2451    2452    2453    2454    2455    2456    2452
    2453    2453       0    2455    2456    2456       0    2458    2459    2460
    2461    2462    2463    2464    2465    2466    2459    2460    2461    2462
    2463    2464    2465    2466    2460    2461    2462    2463    2464    2465
    2466    2461    2462    2463    2464    2465    2466    2462    2463    2463
       0    2465    2466    2466       0    2468    2469    2470    2471    2472
    2473    2474    2475    2476    2469    2470    2471    2472    2473    2474
    2475    2476    2470    2471    2472    2473    2474    2475    2476    2471
    2472    2473    2474    2475    2476    2472    2473    2473       0    2475
    2476    2476       0    2478    2479    2480    2481    2482    2483    2484
    2485    2486    2479    2480    2481    2482    2483    2484    2485    2486
    2480    2481    2482    2483    2484    2485    2486    2481    2482    2483
    2484    2485    2486    2482    2483    2483       0    2485    2486    2486
       0    2488    2489    2490    2491    2492    2493    2494    2495    2496
    2489    2490    2491    2492    2493    2494    2495    2496    2490    2491
    2492    2493    2494    2495    2496    2491    2492    2493    2494    2495
    2496    2492    2493    2493       0    2495    2496    2496       0    2498
    2499    2500    2501    2502    2503    2504    2505    2506    2499    2500
    2501    2502    2503    2504    2505    2506    2500    2501    2502    2503
    2504    2505    2506    2501    2502    2503    2504    2505    2506    2502
    2503    2503       0    2505    2506    2506       0    2508    2509    2510
    2511    2512    2513    2514    2515    2516    2509    2510    2511    2512
    2513    2514    2515    2516    2510    2511    2512    2513    2514    2515
    2516    2511    2512    2513    2514    2515    2516    2512    2513    2513
       0    2515    2516    2516       0    2518    2519    2520    2521    2522
    2523    2524    2525    2526    2519    2520    2521    2522    2523    2524
    2525    2526    2520    2521    2522    2523    2524    2525    2526    2521
    2522    2523    2524    2525    2526    2522    2523    2523       0    2525
    2526    2526       0    2528    2529    2530    2531    2532    2533    2534
    2535    2536    2529    2530    2531    2532    2533    2534    2535    2536
    2530    2531    2532    2533    2534    2535    2536    2531    2532    2533
    2534    2535    2536    2532    2533    2533       0    2535    2536    2536
       0    2538    2539    2540    2541    2542    2543    2544    2545    2546
    2539    2540    2541    2542    2543    2544    2545    2546    2540    2541
    2542    2543    2544    2545    2546    2541    2542    2543    2544    2545
    2546    2542    2543    2543       0    2545    2546    2546       0    2548
    2549    2550    2551    2552    2553    2554    2555    2556    2549    2550
    2551    2552    2553    2554    2555    2556    2550    2551    2552    2553
    2554    2555    2556    2551    2552    2553    2554    2555    2556    2552
    2553    2553       0    2555    2556    2556       0    2558    2559    2560
    2561    2562    2563    2564    2565    2566    2559    2560    2561    2562
    2563    2564    2565    2566    2560    2561    2562    2563    2564    2565
    2566    2561    2562    2563    2564    2565    2566    2562    2563    2563
       0    2565    2566    2566       0    2568    2569    2570    2571    2572
    2573    2574    2575    2576    2569    2570    2571    2572    2573    2574
    2575    2576    2570    2571    2572    2573    2574    2575    2576    2571
    2572    2573    2574    2575    2576    2572    2573    2573       0    2575
    2576    2576       0    2578    2579    2580    2581    2582    2583    2584
    2585    2586    2579    2580    2581    2582    2583    2584    2585    2586
    2580    2581    2582    2583    2584    2585    2586    2581    2582    2583
    2584    2585    2586    2582    2583    2583       0    2585    2586    2586
       0    2588    2589    2590    2591    2592    2593    2594    2595    2596
    2589    2590    2591    2592    2593    2594    2595    2596    2590    2591
    2592    2593    2594    2595    2596    2591    2592    2593    2594    2595
    2596    2592    2593    2593       0    2595    2596    2596       0    2598
    2599    2600    2601    2602    2603    2604    2605    2606    2599    2600
    2601    2602    2603    2604    2605    2606    2600    2601    2602    2603
    2604    2605    2606    2601    2602    2603    2604    2605    2606    2602
    2603    2603       0    2605    2606    2606       0    2608    2609    2610
    2611    2612    2613    2614    2615    2616    2609    2610    2611    2612
    2613    2614    2615    2616    2610    2611    2612    2613    2614    2615
    2616    2611    2612    2613    2614    2615    2616    2612    2613    2613
       0    2615    2616    2616       0    2618    2619    2620    2621    2622
    2623    2624    2625    2626    2619    2620    2621    2622    2623    2624
    2625    2626    2620    2621    2622    2623    2624    2625    2626    2621
    2622    2623    2624    2625    2626    2622    2623    2623       0    2625
    2626    2626       0    2628    2629    2630    2631    2632    2633    2634
    2635    2636    2629    2630    2631    2632    2633    2634    2635    2636
    2630    2631    2632    2633    2634    2635    2636    2631    2632    2633
    2634    2635    2636    2632    2633    2633       0    2635    2636    2636
       0    2638    2639    2640    2641    2642    2643    2644    2645    2646
    2639    2640    2641    2642    2643    2644    2645    2646    2640    2641
    2642    2643    2644    2645    2646    2641    2642    2643    2644    2645
    2646    2642    2643    2643       0    2645    2646    2646       0    2648
    2649    2650    2651    2652    2653    2654    2655    2656    2649    2650
    2651    2652    2653    2654    2655    2656    2650    2651    2652    2653
    2654    2655    2656    2651    2652    2653    2654    2655    2656    2652
    2653    2653       0    2655    2656    2656       0    2658    2659    2660
    2661    2662    2663    2664    2665    2666    2659    2660    2661    2662
    2663    2664    2665    2666    2660    2661    2662    2663    2664    2665
    2666    2661    2662    2663    2664    2665    2666    2662    2663    2663
       0    2665    2666    2666       0    2668    2669    2670    2671    2672
    2673    2674    2675    2676    2669    2670    2671    2672    2673    2674
    2675    2676    2670    2671    2672    2673    2674    2675    2676    2671
    2672    2673    2674    2675    2676    2672    2673    2673       0    2675
    2676    2676       0    2678    2679    2680    2681    2682    2683    2684
    2685    2686    2679    2680    2681    2682    2683    2684    2685    2686
    2680    2681    2682    2683    2684    2685    2686    2681    2682    2683
    2684    2685    2686    2682    2683    2683       0    2685    2686    2686
       0    2688    2689    2690    2691    2692    2693    2694    2695    2696
    2689    2690    2691    2692    2693    2694    2695    2696    2690    2691
    2692    2693    2694    2695    2696    2691    2692    2693    2694    2695
    2696    2692    2693    2693       0    2695    2696    2696       0    2698
    2699    2700    2701    2702    2703    2704    2705    2706    2699    2700
    2701    2702    2703    2704    2705    2706    2700    2701    2702    2703
    2704    2705    2706    2701    2702    2703    2704    2705    2706    2702
    2703    2703       0    2705    2706    2706       0    2708    2709    2710
    2711    2712    2713    2714    2715    2716    2709    2710    2711    2712
    2713    2714    2715    2716    2710    2711    2712    2713    2714    2715
    2716    2711    2712    2713    2714    2715    2716    2712    2713    2713
       0    2715    2716    2716       0    2718    2719    2720    2721    2722
    2723    2724    2725    2726    2719    2720    2721    2722    2723    2724
    2725    2726    2720    2721    2722    2723    2724    2725    2726    2721
    2722    2723    2724    2725    2726    2722    2723    2723       0    2725
    2726    2726       0    2728    2729    2730    2731    2732    2733    2734
    2735    2736    2729    2730    2731    2732    2733    2734    2735    2736
    2730    2731    2732    2733    2734    2735    2736    2731    2732    2733
    2734    2735    2736    2732    2733    2733       0    2735    2736    2736
       0    2738    2739    2740    2741    2742    2743    2744    2745    2746
    2739    2740    2741    2742    2743    2744    2745    2746    2740    2741
    2742    2743    2744    2745    2746    2741    2742    2743    2744    2745
    2746    2742    2743    2743       0    2745    2746    2746       0    2748
    2749    2750    2751    2752    2753    2754    2755    2756    2749    2750
    2751    2752    2753    2754    2755    2756    2750    2751    2752    2753
    2754    2755    2756    2751    2752    2753    2754    2755    2756    2752
    2753    2753       0    2755    2756    2756       0    2758    2759    2760
    2761    2762    2763    2764    2765    2766    2759    2760    2761    2762
    2763    2764    2765    2766    2760    2761    2762    2763    2764    2765
    2766    2761    2762    2763    2764    2765    2766    2762    2763    2763
       0    2765    2766    2766       0    2768    2769    2770    2771    2772
    2773    2774    2775    2776    2769    2770    2771    2772    2773    2774
    2775    2776    2770    2771    2772    2773    2774    2775    2776    2771
    2772    2773    2774    2775    2776    2772    2773    2773       0    2775
    2776    2776       0    2778    2779    2780    2781    2782    2783    2784
    2785    2786    2779    2780    2781    2782    2783    2784    2785    2786
    2780    2781    2782    2783    2784    2785    2786    2781    2782    2783
    2784    2785    2786    2782    2783    2783       0    2785    2786    2786
       0    2788    2789    2790    2791    2792    2793    2794    2795    2796
    2789    2790    2791    2792    2793    2794    2795    2796    2790    2791
    2792    2793    2794    2795    2796    2791    2792    2793    2794    2795
    2796    2792    2793    2793       0    2795    2796    2796       0    2798
    2799    2800    2801    2802    2803    2804    2805    2806    2799    2800
    2801    2802    2803    2804    2805    2806    2800    2801    2802    2803
    2804    2805    2806    2801    2802    2803    2804    2805    2806    2802
    2803    2803       0    2805    2806    2806       0    2808    2809    2810
    2811    2812    2813    2814    2815    2816    2809    2810    2811    2812
    2813    2814    2815    2816    2810    2811    2812    2813    2814    2815
    2816    2811    2812    2813    2814    2815    2816    2812    2813    2813
       0    2815    2816    2816       0    2818    2819    2820    2821    2822
    2823    2824    2825    2826    2819    2820    2821    2822    2823    2824
    2825    2826    2820    2821    2822    2823    2824    2825    2826    2821
    2822    2823    2824    2825    2826    2822    2823    2823       0    2825
    2826    2826       0    2828    2829    2830    2831    2832    2833    2834
    2835    2836    2829    2830    2831    2832    2833    2834    2835    2836
    2830    2831    2832    2833    2834    2835    2836    2831    2832    2833
    2834    2835    2836    2832    2833    2833       0    2835    2836    2836
       0    2838    2839    2840    2841    2842    2843    2844    2845    2846
    2839    2840    2841    2842    2843    2844    2845    2846    2840    2841
    2842    2843    2844    2845    2846    2841    2842    2843    2844    2845
    2846    2842    2843    2843       0    2845    2846    2846       0    2848
    2849    2850    2851    2852    2853    2854    2855    2856    2849    2850
    2851    2852    2853    2854    2855    2856    2850    2851    2852    2853
    2854    2855    2856    2851    2852    2853    2854    2855    2856    2852
    2853    2853       0    2855    2856    2856       0    2858    2859    2860
    2861    2862    2863    2864    2865    2866    2859    2860    2861    2862
    2863    2864    2865    2866    2860    2861    2862    2863    2864    2865
    2866    2861    2862    2863    2864    2865    2866    2862    2863    2863
       0    2865    2866    2866       0    2868    2869    2870    2871    2872
    2873    2874    2875    2876    2869    2870    2871    2872    2873    2874
    2875    2876    2870    2871    2872    2873    2874    2875    2876    2871
    2872    2873    2874    2875    2876    2872    2873    2873       0    2875
    2876    2876       0    2878    2879    2880    2881    2882    2883    2884
    2885    2886    2879    2880    2881    2882    2883    2884    2885    2886
    2880    2881    2882    2883    2884    2885    2886    2881    2882    2883
    2884    2885    2886    2882    2883    2883       0    2885    2886    2886
       0    2888    2889    2890    2891    2892    2893    2894    2895    2896
    2889    2890    2891    2892    2893    2894    2895    2896    2890    2891
    2892    2893    2894    2895    2896    2891    2892    2893    2894    2895
    2896    2892    2893    2893       0    2895    2896    2896       0    2898
    2899    2900    2901    2902    2903    2904    2905    2906    2899    2900
    2901    2902    2903    2904    2905    2906    2900    2901    2902    2903
    2904    2905    2906    2901    2902    2903    2904    2905    2906    2902
    2903    2903       0    2905    2906    2906       0    2908    2909    2910
    2911    2912    2913    2914    2915    2916    2909    2910    2911    2912
    2913    2914    2915    2916    2910    2911    2912    2913    2914    2915
    2916    2911    2912    2913    2914    2915    2916    2912    2913    2913
       0    2915    2916    2916       0    2918    2919    2920    2921    2922
    2923    2924    2925    2926    2919    2920    2921    2922    2923    2924
    2925    2926    2920    2921    2922    2923    2924    2925    2926    2921
    2922    2923    2924    2925    2926    2922    2923    2923       0    2925
    2926    2926       0    2928    2929    2930    2931    2932    2933    2934
    2935    2936    2929    2930    2931    2932    2933    2934    2935    2936
    2930    2931    2932    2933    2934    2935    2936    2931    2932    2933
    2934    2935    2936    2932    2933    2933       0    2935    2936    2936
       0    2938    2939    2940    2941    2942    2943    2944    2945    2946
    2939    2940    2941    2942    2943    2944    2945    2946    2940    2941
    2942    2943    2944    2945    2946    2941    2942    2943    2944    2945
    2946    2942    2943    2943       0    2945    2946    2946       0    2948
    2949    2950    2951    2952    2953    2954    2955    2956    2949    2950
    2951    2952    2953    2954    2955    2956    2950    2951    2952    2953
    2954    2955    2956    2951    2952    2953    2954    2955    2956    2952
    2953    2953       0    2955    2956    2956       0    2958    2959    2960
    2961    2962    2963    2964    2965    2966    2959    2960    2961    2962
    2963    2964    2965    2966    2960    2961    2962    2963    2964    2965
    2966    2961    2962    2963    2964    2965    2966    2962    2963    2963
       0    2965    2966    2966       0    2968    2969    2970    2971    2972
    2973    2974    2975    2976    2969    2970    2971    2972    2973    2974
    2975    2976    2970    2971    2972    2973    2974    2975    2976    2971
    2972    2973    2974    2975    2976    2972    2973    2973       0    2975
    2976    2976       0    2978    2979    2980    2981    2982    2983    2984
    2985    2986    2979    2980    2981    2982    2983    2984    2985    2986
    2980    2981    2982    2983    2984    2985    2986    2981    2982    2983
    2984    2985    2986    2982    2983    2983       0    2985    2986    2986
       0    2988    2989    2990    2991    2992    2993    2994    2995    2996
    2989    2990    2991    2992    2993    2994    2995    2996    2990    2991
    2992    2993    2994    2995    2996    2991    2992    2993    2994    2995
    2996    2992    2993    2993       0    2995    2996    2996       0    2998
    2999    3000    3001    3002    3003    3004    3005    3006    2999    3000
    3001    3002    3003    3004    3005    3006    3000    3001    3002    3003
    3004    3005    3006    3001    3002    3003    3004    3005    3006    3002
    3003    3003       0    3005    3006    3006       0    3008    3009    3010
    3011    3012    3013    3014    3015    3016    3009    3010    3011    3012
    3013    3014    3015    3016    3010    3011    3012    3013    3014    3015
    3016    3011    3012    3013    3014    3015    3016    3012    3013    3013
       0    3015    3016    3016       0    3018    3019    3020    3021    3022
    3023    3024    3025    3026    3019    3020    3021    3022    3023    3024
    3025    3026    3020    3021    3022    3023    3024    3025    3026    3021
    3022    3023    3024    3025    3026    3022    3023    3023       0    3025
    3026    3026       0    3028    3029    3030    3031    3032    3033    3034
    3035    3036    3029    3030    3031    3032    3033    3034    3035    3036
    3030    3031    3032    3033    3034    3035    3036    3031    3032    3033
    3034    3035    3036    3032    3033    3033       0    3035    3036    3036
       0    3038    3039    3040    3041    3042    3043    3044    3045    3046
    3039    3040    3041    3042    3043    3044    3045    3046    3040    3041
    3042    3043    3044    3045    3046    3041    3042    3043    3044    3045
    3046    3042    3043    3043       0    3045    3046    3046       0    3048
    3049    3050    3051    3052    3053    3054    3055    3056    3049    3050
    3051    3052    3053    3054    3055    3056    3050    3051    3052    3053
    3054    3055    3056    3051    3052    3053    3054    3055    3056    3052
    3053    3053       0    3055    3056    3056       0    3058    3059    3060
    3061    3062    3063    3064    3065    3066    3059    3060    3061    3062
    3063    3064    3065    3066    3060    3061    3062    3063    3064    3065
    3066    3061    3062    3063    3064    3065    3066    3062    3063    3063
       0    3065    3066    3066       0    3068    3069    3070    3071    3072
    3073    3074    3075    3076    3069    3070    3071    3072    3073    3074
    3075    3076    3070    3071    3072    3073    3074    3075    3076    3071
    3072    3073    3074    3075    3076    3072    3073    3073       0    3075
    3076    3076       0    3078    3079    3080    3081    3082    3083    3084
    3085    3086    3079    3080    3081    3082    3083    3084    3085    3086
    3080    3081    3082    3083    3084    3085    3086    3081    3082    3083
    3084    3085    3086    3082    3083    3083       0    3085    3086    3086
       0    3088    3089    3090    3091    3092    3093    3094    3095    3096
    3089    3090    3091    3092    3093    3094    3095    3096    3090    3091
    3092    3093    3094    3095    3096    3091    3092    3093    3094    3095
    3096    3092    3093    3093       0    3095    3096    3096       0    3098
    3099    3100    3101    3102    3103    3104    3105    3106    3099    3100
    3101    3102    3103    3104    3105    3106    3100    3101    3102    3103
    3104    3105    3106    3101    3102    3103    3104    3105    3106    3102
    3103    3103       0    3105    3106    3106       0    3108    3109    3110
    3111    3112    3113    3114    3115    3116    3109    3110    3111    3112
    3113    3114    3115    3116    3110    3111    3112    3113    3114    3115
    3116    3111    3112    3113    3114    3115    3116    3112    3113    3113
       0    3115    3116    3116       0    3118    3119    3120    3121    3122
    3123    3124    3125    3126    3119    3120    3121    3122    3123    3124
    3125    3126    3120    3121    3122    3123    3124    3125    3126    3121
    3122    3123    3124    3125    3126    3122    3123    3123       0    3125
    3126    3126       0    3128    3129    3130    3131    3132    3133    3134
    3135    3136    3129    3130    3131    3132    3133    3134    3135    3136
    3130    3131    3132    3133    3134    3135    3136    3131    3132    3133
    3134    3135    3136    3132    3133    3133       0    3135    3136    3136
       0    3138    3139    3140    3141    3142    3143    3144    3145    3146
    3139    3140    3141    3142    3143    3144    3145    3146    3140    3141
    3142    3143    3144    3145    3146    3141    3142    3143    3144    3145
    3146    3142    3143    3143       0    3145    3146    3146       0    3148
    3149    3150    3151    3152    3153    3154    3155    3156    3149    3150
    3151    3152    3153    3154    3155    3156    3150    3151    3152    3153
    3154    3155    3156    3151    3152    3153    3154    3155    3156    3152
    3153    3153       0    3155    3156    3156       0    3158    3159    3160
    3161    3162    3163    3164    3165    3166    3159    3160    3161    3162
    3163    3164    3165    3166    3160    3161    3162    3163    3164    3165
    3166    3161    3162    3163    3164    3165    3166    3162    3163    3163
       0    3165    3166    3166       0    3168    3169    3170    3171    3172
    3173    3174    3175    3176    3169    3170    3171    3172    3173    3174
    3175    3176    3170    3171    3172    3173    3174    3175    3176    3171
    3172    3173    3174    3175    3176    3172    3173    3173       0    3175
    3176    3176       0    3178    3179    3180    3181    3182    3183    3184
    3185    3186    3179    3180    3181    3182    3183    3184    3185    3186
    3180    3181    3182    3183    3184    3185    3186    3181    3182    3183
    3184    3185    3186    3182    3183    3183       0    3185    3186    3186
       0    3188    3189    3190    3191    3192    3193    3194    3195    3196
    3189    3190    3191    3192    3193    3194    3195    3196    3190    3191
    3192    3193    3194    3195    3196    3191    3192    3193    3194    3195
    3196    3192    3193    3193       0    3195    3196    3196       0    3198
    3199    3200    3201    3202    3203    3204    3205    3206    3199    3200
    3201    3202    3203    3204    3205    3206    3200    3201    3202    3203
    3204    3205    3206    3201    3202    3203    3204    3205    3206    3202
    3203    3203       0    3205    3206    3206       0    3208    3209    3210
    3211    3212    3213    3214    3215    3216    3209    3210    3211    3212
    3213    3214    3215    3216    3210    3211    3212    3213    3214    3215
    3216    3211    3212    3213    3214    3215    3216    3212    3213    3213
       0    3215    3216    3216       0    3218    3219    3220    3221    3222
    3223    3224    3225    3226    3219    3220    3221    3222    3223    3224
    3225    3226    3220    3221    3222    3223    3224    3225    3226    3221
    3222    3223    3224    3225    3226    3222    3223    3223       0    3225
    3226    3226       0    3228    3229    3230    3231    3232    3233    3234
    3235    3236    3229    3230    3231    3232    3233    3234    3235    3236
    3230    3231    3232    3233    3234    3235    3236    3231    3232    3233
    3234    3235    3236    3232    3233    3233       0    3235    3236    3236
       0    3238    3239    3240    3241    3242    3243    3244    3245    3246
    3239    3240    3241    3242    3243    3244    3245    3246    3240    3241
    3242    3243    3244    3245    3246    3241    3242    3243    3244    3245
    3246    3242    3243    3243       0    3245    3246    3246       0    3248
    3249    3250    3251    3252    3253    3254    3255    3256    3249    3250
    3251    3252    3253    3254    3255    3256    3250    3251    3252    3253
    3254    3255    3256    3251    3252    3253    3254    3255    3256    3252
    3253    3253       0    3255    3256    3256       0    3258    3259    3260
    3261    3262    3263    3264    3265    3266    3259    3260    3261    3262
    3263    3264    3265    3266    3260    3261    3262    3263    3264    3265
    3266    3261    3262    3263    3264    3265    3266    3262    3263    3263
       0    3265    3266    3266       0    3268    3269    3270    3271    3272
    3273    3274    3275    3276    3269    3270    3271    3272    3273    3274
    3275    3276    3270    3271    3272    3273    3274    3275    3276    3271
    3272    3273    3274    3275    3276    3272    3273    3273       0    3275
    3276    3276       0    3278    3279    3280    3281    3282    3283    3284
    3285    3286    3279    3280    3281    3282    3283    3284    3285    3286
    3280    3281    3282    3283    3284    3285    3286    3281    3282    3283
    3284    3285    3286    3282    3283    3283       0    3285    3286    3286
       0    3288    3289    3290    3291    3292    3293    3294    3295    3296
    3289    3290    3291    3292    3293    3294    3295    3296    3290    3291
    3292    3293    3294    3295    3296    3291    3292    3293    3294    3295
    3296    3292    3293    3293       0    3295    3296    3296       0    3298
    3299    3300    3301    3302    3303    3304    3305    3306    3299    3300
    3301    3302    3303    3304    3305    3306    3300    3301    3302    3303
    3304    3305    3306    3301    3302    3303    3304    3305    3306    3302
    3303    3303       0    3305    3306    3306       0    3308    3309    3310
    3311    3312    3313    3314    3315    3316    3309    3310    3311    3312
    3313    3314    3315    3316    3310    3311    3312    3313    3314    3315
    3316    3311    3312    3313    3314    3315    3316    3312    3313    3313
       0    3315    3316    3316       0    3318    3319    3320    3321    3322
    3323    3324    3325    3326    3319    3320    3321    3322    3323    3324
    3325    3326    3320    3321    3322    3323    3324    3325    3326    3321
    3322    3323    3324    3325    3326    3322    3323    3323       0    3325
    3326    3326       0    3328    3329    3330    3331    3332    3333    3334
    3335    3336    3329    3330    3331    3332    3333    3334    3335    3336
    3330    3331    3332    3333    3334    3335    3336    3331    3332    3333
    3334    3335    3336    3332    3333    3333       0    3335    3336    3336
       0    3338    3339    3340    3341    3342    3343    3344    3345    3346
    3339    3340    3341    3342    3343    3344    3345    3346    3340    3341
    3342    3343    3344    3345    3346    3341    3342    3343    3344    3345
    3346    3342    3343    3343       0    3345    3346    3346       0    3348
    3349    3350    3351    3352    3353    3354    3355    3356    3349    3350
    3351    3352    3353    3354    3355    3356    3350    3351    3352    3353
    3354    3355    3356    3351    3352    3353    3354    3355    3356    3352
    3353    3353       0    3355    3356    3356       0    3358    3359    3360
    3361    3362    3363    3364    3365    3366    3359    3360    3361    3362
    3363    3364    3365    3366    3360    3361    3362    3363    3364    3365
    3366    3361    3362    3363    3364    3365    3366    3362    3363    3363
       0    3365    3366    3366       0    3368    3369    3370    3371    3372
    3373    3374    3375    3376    3369    3370    3371    3372    3373    3374
    3375    3376    3370    3371    3372    3373    3374    3375    3376    3371
    3372    3373    3374    3375    3376    3372    3373    3373       0    3375
    3376    3376       0    3378    3379    3380    3381    3382    3383    3384
    3385    3386    3379    3380    3381    3382    3383    3384    3385    3386
    3380    3381    3382    3383    3384    3385    3386    3381    3382    3383
    3384    3385    3386    3382    3383    3383       0    3385    3386    3386
       0    3388    3389    3390    3391    3392    3393    3394    3395    3396
    3389    3390    3391    3392    3393    3394    3395    3396    3390    3391
    3392    3393    3394    3395    3396    3391    3392    3393    3394    3395
    3396    3392    3393    3393       0    3395    3396    3396       0    3398
    3399    3400    3401    3402    3403    3404    3405    3406    3399    3400
    3401    3402    3403    3404    3405    3406    3400    3401    3402    3403
    3404    3405    3406    3401    3402    3403    3404    3405    3406    3402
    3403    3403       0    3405    3406    3406       0    3408    3409    3410
    3411    3412    3413    3414    3415    3416    3409    3410    3411    3412
    3413    3414    3415    3416    3410    3411    3412    3413    3414    3415
    3416    3411    3412    3413    3414    3415    3416    3412    3413    3413
       0    3415    3416    3416       0    3418    3419    3420    3421    3422
    3423    3424    3425    3426    3419    3420    3421    3422    3423    3424
    3425    3426    3420    3421    3422    3423    3424    3425    3426    3421
    3422    3423    3424    3425    3426    3422    3423    3423       0    3425
    3426    3426       0    3428    3429    3430    3431    3432    3433    3434
    3435    3436    3429    3430    3431    3432    3433    3434    3435    3436
    3430    3431    3432    3433    3434    3435    3436    3431    3432    3433
    3434    3435    3436    3432    3433    3433       0    3435    3436    3436
       0
%FLAG HBOND_ACOEF                                                               
%FORMAT(5E16.8)                                                                 

%FLAG HBOND_BCOEF                                                               
%FORMAT(5E16.8)                                                                 

%FLAG HBCUT                                                                     
%FORMAT(5E16.8)                                                                 

%FLAG AMBER_ATOM_TYPE                                                           
%FORMAT(20a4)                                                                   
o   o   na  na  ca  ca  ca  ca  ca  ca  ca  ca  ca  ca  c   c   ca  ca  ca  ca  
ca  ca  ca  ca  ha  ha  hn  hn  ha  ha  ha  ha  ha  ha  ha  ha  s4  o   c3  c3  
h1  h1  h1  h1  h1  h1  s4  o   c3  c3  h1  h1  h1  h1  h1  h1  s4  o   c3  c3  
h1  h1  h1  h1  h1  h1  s4  o   c3  c3  h1  h1  h1  h1  h1  h1  s4  o   c3  c3  
h1  h1  h1  h1  h1  h1  s4  o   c3  c3  h1  h1  h1  h1  h1  h1  s4  o   c3  c3  
h1  h1  h1  h1  h1  h1  s4  o   c3  c3  h1  h1  h1  h1  h1  h1  s4  o   c3  c3  
h1  h1  h1  h1  h1  h1  s4  o   c3  c3  h1  h1  h1  h1  h1  h1  s4  o   c3  c3  
h1  h1  h1  h1  h1  h1  s4  o   c3  c3  h1  h1  h1  h1  h1  h1  s4  o   c3  c3  
h1  h1  h1  h1  h1  h1  s4  o   c3  c3  h1  h1  h1  h1  h1  h1  s4  o   c3  c3  
h1  h1  h1  h1  h1  h1  s4  o   c3  c3  h1  h1  h1  h1  h1  h1  s4  o   c3  c3  
h1  h1  h1  h1  h1  h1  s4  o   c3  c3  h1  h1  h1  h1  h1  h1  s4  o   c3  c3  
h1  h1  h1  h1  h1  h1  s4  o   c3  c3  h1  h1  h1  h1  h1  h1  s4  o   c3  c3  
h1  h1  h1  h1  h1  h1  s4  o   c3  c3  h1  h1  h1  h1  h1  h1  s4  o   c3  c3  
h1  h1  h1  h1  h1  h1  s4  o   c3  c3  h1  h1  h1  h1  h1  h1  s4  o   c3  c3  
h1  h1  h1  h1  h1  h1  s4  o   c3  c3  h1  h1  h1  h1  h1  h1  s4  o   c3  c3  
h1  h1  h1  h1  h1  h1  s4  o   c3  c3  h1  h1  h1  h1  h1  h1  s4  o   c3  c3  
h1  h1  h1  h1  h1  h1  s4  o   c3  c3  h1  h1  h1  h1  h1  h1  s4  o   c3  c3  
h1  h1  h1  h1  h1  h1  s4  o   c3  c3  h1  h1  h1  h1  h1  h1  s4  o   c3  c3  
h1  h1  h1  h1  h1  h1  s4  o   c3  c3  h1  h1  h1  h1  h1  h1  s4  o   c3  c3  
h1  h1  h1  h1  h1  h1  s4  o   c3  c3  h1  h1  h1  h1  h1  h1  s4  o   c3  c3  
h1  h1  h1  h1  h1  h1  s4  o   c3  c3  h1  h1  h1  h1  h1  h1  s4  o   c3  c3  
h1  h1  h1  h1  h1  h1  s4  o   c3  c3  h1  h1  h1  h1  h1  h1  s4  o   c3  c3  
h1  h1  h1  h1  h1  h1  s4  o   c3  c3  h1  h1  h1  h1  h1  h1  s4  o   c3  c3  
h1  h1  h1  h1  h1  h1  s4  o   c3  c3  h1  h1  h1  h1  h1  h1  s4  o   c3  c3  
h1  h1  h1  h1  h1  h1  s4  o   c3  c3  h1  h1  h1  h1  h1  h1  s4  o   c3  c3  
h1  h1  h1  h1  h1  h1  s4  o   c3  c3  h1  h1  h1  h1  h1  h1  s4  o   c3  c3  
h1  h1  h1  h1  h1  h1  s4  o   c3  c3  h1  h1  h1  h1  h1  h1  s4  o   c3  c3  
h1  h1  h1  h1  h1  h1  s4  o   c3  c3  h1  h1  h1  h1  h1  h1  s4  o   c3  c3  
h1  h1  h1  h1  h1  h1  s4  o   c3  c3  h1  h1  h1  h1  h1  h1  s4  o   c3  c3  
h1  h1  h1  h1  h1  h1  s4  o   c3  c3  h1  h1  h1  h1  h1  h1  s4  o   c3  c3  
h1  h1  h1  h1  h1  h1  s4  o   c3  c3  h1  h1  h1  h1  h1  h1  s4  o   c3  c3  
h1  h1  h1  h1  h1  h1  s4  o   c3  c3  h1  h1  h1  h1  h1  h1  s4  o   c3  c3  
h1  h1  h1  h1  h1  h1  s4  o   c3  c3  h1  h1  h1  h1  h1  h1  s4  o   c3  c3  
h1  h1  h1  h1  h1  h1  s4  o   c3  c3  h1  h1  h1  h1  h1  h1  s4  o   c3  c3  
h1  h1  h1  h1  h1  h1  s4  o   c3  c3  h1  h1  h1  h1  h1  h1  s4  o   c3  c3  
h1  h1  h1  h1  h1  h1  s4  o   c3  c3  h1  h1  h1  h1  h1  h1  s4  o   c3  c3  
h1  h1  h1  h1  h1  h1  s4  o   c3  c3  h1  h1  h1  h1  h1  h1  s4  o   c3  c3  
h1  h1  h1  h1  h1  h1  s4  o   c3  c3  h1  h1  h1  h1  h1  h1  s4  o   c3  c3  
h1  h1  h1  h1  h1  h1  s4  o   c3  c3  h1  h1  h1  h1  h1  h1  s4  o   c3  c3  
h1  h1  h1  h1  h1  h1  s4  o   c3  c3  h1  h1  h1  h1  h1  h1  s4  o   c3  c3  
h1  h1  h1  h1  h1  h1  s4  o   c3  c3  h1  h1  h1  h1  h1  h1  s4  o   c3  c3  
h1  h1  h1  h1  h1  h1  s4  o   c3  c3  h1  h1  h1  h1  h1  h1  s4  o   c3  c3  
h1  h1  h1  h1  h1  h1  s4  o   c3  c3  h1  h1  h1  h1  h1  h1  s4  o   c3  c3  
h1  h1  h1  h1  h1  h1  s4  o   c3  c3  h1  h1  h1  h1  h1  h1  s4  o   c3  c3  
h1  h1  h1  h1  h1  h1  s4  o   c3  c3  h1  h1  h1  h1  h1  h1  s4  o   c3  c3  
h1  h1  h1  h1  h1  h1  s4  o   c3  c3  h1  h1  h1  h1  h1  h1  s4  o   c3  c3  
h1  h1  h1  h1  h1  h1  s4  o   c3  c3  h1  h1  h1  h1  h1  h1  s4  o   c3  c3  
h1  h1  h1  h1  h1  h1  s4  o   c3  c3  h1  h1  h1  h1  h1  h1  s4  o   c3  c3  
h1  h1  h1  h1  h1  h1  s4  o   c3  c3  h1  h1  h1  h1  h1  h1  s4  o   c3  c3  
h1  h1  h1  h1  h1  h1  s4  o   c3  c3  h1  h1  h1  h1  h1  h1  s4  o   c3  c3  
h1  h1  h1  h1  h1  h1  s4  o   c3  c3  h1  h1  h1  h1  h1  h1  s4  o   c3  c3  
h1  h1  h1  h1  h1  h1  s4  o   c3  c3  h1  h1  h1  h1  h1  h1  s4  o   c3  c3  
h1  h1  h1  h1  h1  h1  s4  o   c3  c3  h1  h1  h1  h1  h1  h1  s4  o   c3  c3  
h1  h1  h1  h1  h1  h1  s4  o   c3  c3  h1  h1  h1  h1  h1  h1  s4  o   c3  c3  
h1  h1  h1  h1  h1  h1  s4  o   c3  c3  h1  h1  h1  h1  h1  h1  s4  o   c3  c3  
h1  h1  h1  h1  h1  h1  s4  o   c3  c3  h1  h1  h1  h1  h1  h1  s4  o   c3  c3  
h1  h1  h1  h1  h1  h1  s4  o   c3  c3  h1  h1  h1  h1  h1  h1  s4  o   c3  c3  
h1  h1  h1  h1  h1  h1  s4  o   c3  c3  h1  h1  h1  h1  h1  h1  s4  o   c3  c3  
h1  h1  h1  h1  h1  h1  s4  o   c3  c3  h1  h1  h1  h1  h1  h1  s4  o   c3  c3  
h1  h1  h1  h1  h1  h1  s4  o   c3  c3  h1  h1  h1  h1  h1  h1  s4  o   c3  c3  
h1  h1  h1  h1  h1  h1  s4  o   c3  c3  h1  h1  h1  h1  h1  h1  s4  o   c3  c3  
h1  h1  h1  h1  h1  h1  s4  o   c3  c3  h1  h1  h1  h1  h1  h1  s4  o   c3  c3  
h1  h1  h1  h1  h1  h1  s4  o   c3  c3  h1  h1  h1  h1  h1  h1  s4  o   c3  c3  
h1  h1  h1  h1  h1  h1  s4  o   c3  c3  h1  h1  h1  h1  h1  h1  s4  o   c3  c3  
h1  h1  h1  h1  h1  h1  s4  o   c3  c3  h1  h1  h1  h1  h1  h1  s4  o   c3  c3  
h1  h1  h1  h1  h1  h1  s4  o   c3  c3  h1  h1  h1  h1  h1  h1  s4  o   c3  c3  
h1  h1  h1  h1  h1  h1  s4  o   c3  c3  h1  h1  h1  h1  h1  h1  s4  o   c3  c3  
h1  h1  h1  h1  h1  h1  s4  o   c3  c3  h1  h1  h1  h1  h1  h1  s4  o   c3  c3  
h1  h1  h1  h1  h1  h1  s4  o   c3  c3  h1  h1  h1  h1  h1  h1  s4  o   c3  c3  
h1  h1  h1  h1  h1  h1  s4  o   c3  c3  h1  h1  h1  h1  h1  h1  s4  o   c3  c3  
h1  h1  h1  h1  h1  h1  s4  o   c3  c3  h1  h1  h1  h1  h1  h1  s4  o   c3  c3  
h1  h1  h1  h1  h1  h1  s4  o   c3  c3  h1  h1  h1  h1  h1  h1  s4  o   c3  c3  
h1  h1  h1  h1  h1  h1  s4  o   c3  c3  h1  h1  h1  h1  h1  h1  s4  o   c3  c3  
h1  h1  h1  h1  h1  h1  s4  o   c3  c3  h1  h1  h1  h1  h1  h1  s4  o   c3  c3  
h1  h1  h1  h1  h1  h1  s4  o   c3  c3  h1  h1  h1  h1  h1  h1  s4  o   c3  c3  
h1  h1  h1  h1  h1  h1  s4  o   c3  c3  h1  h1  h1  h1  h1  h1  s4  o   c3  c3  
h1  h1  h1  h1  h1  h1  s4  o   c3  c3  h1  h1  h1  h1  h1  h1  s4  o   c3  c3  
h1  h1  h1  h1  h1  h1  s4  o   c3  c3  h1  h1  h1  h1  h1  h1  s4  o   c3  c3  
h1  h1  h1  h1  h1  h1  s4  o   c3  c3  h1  h1  h1  h1  h1  h1  s4  o   c3  c3  
h1  h1  h1  h1  h1  h1  s4  o   c3  c3  h1  h1  h1  h1  h1  h1  s4  o   c3  c3  
h1  h1  h1  h1  h1  h1  s4  o   c3  c3  h1  h1  h1  h1  h1  h1  s4  o   c3  c3  
h1  h1  h1  h1  h1  h1  s4  o   c3  c3  h1  h1  h1  h1  h1  h1  s4  o   c3  c3  
h1  h1  h1  h1  h1  h1  s4  o   c3  c3  h1  h1  h1  h1  h1  h1  s4  o   c3  c3  
h1  h1  h1  h1  h1  h1  s4  o   c3  c3  h1  h1  h1  h1  h1  h1  s4  o   c3  c3  
h1  h1  h1  h1  h1  h1  s4  o   c3  c3  h1  h1  h1  h1  h1  h1  s4  o   c3  c3  
h1  h1  h1  h1  h1  h1  s4  o   c3  c3  h1  h1  h1  h1  h1  h1  s4  o   c3  c3  
h1  h1  h1  h1  h1  h1  s4  o   c3  c3  h1  h1  h1  h1  h1  h1  s4  o   c3  c3  
h1  h1  h1  h1  h1  h1  s4  o   c3  c3  h1  h1  h1  h1  h1  h1  s4  o   c3  c3  
h1  h1  h1  h1  h1  h1  s4  o   c3  c3  h1  h1  h1  h1  h1  h1  s4  o   c3  c3  
h1  h1  h1  h1  h1  h1  s4  o   c3  c3  h1  h1  h1  h1  h1  h1  s4  o   c3  c3  
h1  h1  h1  h1  h1  h1  s4  o   c3  c3  h1  h1  h1  h1  h1  h1  s4  o   c3  c3  
h1  h1  h1  h1  h1  h1  s4  o   c3  c3  h1  h1  h1  h1  h1  h1  s4  o   c3  c3  
h1  h1  h1  h1  h1  h1  s4  o   c3  c3  h1  h1  h1  h1  h1  h1  s4  o   c3  c3  
h1  h1  h1  h1  h1  h1  s4  o   c3  c3  h1  h1  h1  h1  h1  h1  s4  o   c3  c3  
h1  h1  h1  h1  h1  h1  s4  o   c3  c3  h1  h1  h1  h1  h1  h1  s4  o   c3  c3  
h1  h1  h1  h1  h1  h1  s4  o   c3  c3  h1  h1  h1  h1  h1  h1  s4  o   c3  c3  
h1  h1  h1  h1  h1  h1  s4  o   c3  c3  h1  h1  h1  h1  h1  h1  s4  o   c3  c3  
h1  h1  h1  h1  h1  h1  s4  o   c3  c3  h1  h1  h1  h1  h1  h1  s4  o   c3  c3  
h1  h1  h1  h1  h1  h1  s4  o   c3  c3  h1  h1  h1  h1  h1  h1  s4  o   c3  c3  
h1  h1  h1  h1  h1  h1  s4  o   c3  c3  h1  h1  h1  h1  h1  h1  s4  o   c3  c3  
h1  h1  h1  h1  h1  h1  s4  o   c3  c3  h1  h1  h1  h1  h1  h1  s4  o   c3  c3  
h1  h1  h1  h1  h1  h1  s4  o   c3  c3  h1  h1  h1  h1  h1  h1  s4  o   c3  c3  
h1  h1  h1  h1  h1  h1  s4  o   c3  c3  h1  h1  h1  h1  h1  h1  s4  o   c3  c3  
h1  h1  h1  h1  h1  h1  s4  o   c3  c3  h1  h1  h1  h1  h1  h1  s4  o   c3  c3  
h1  h1  h1  h1  h1  h1  s4  o   c3  c3  h1  h1  h1  h1  h1  h1  s4  o   c3  c3  
h1  h1  h1  h1  h1  h1  s4  o   c3  c3  h1  h1  h1  h1  h1  h1  s4  o   c3  c3  
h1  h1  h1  h1  h1  h1  s4  o   c3  c3  h1  h1  h1  h1  h1  h1  s4  o   c3  c3  
h1  h1  h1  h1  h1  h1  s4  o   c3  c3  h1  h1  h1  h1  h1  h1  s4  o   c3  c3  
h1  h1  h1  h1  h1  h1  s4  o   c3  c3  h1  h1  h1  h1  h1  h1  s4  o   c3  c3  
h1  h1  h1  h1  h1  h1  s4  o   c3  c3  h1  h1  h1  h1  h1  h1  s4  o   c3  c3  
h1  h1  h1  h1  h1  h1  s4  o   c3  c3  h1  h1  h1  h1  h1  h1  s4  o   c3  c3  
h1  h1  h1  h1  h1  h1  s4  o   c3  c3  h1  h1  h1  h1  h1  h1  s4  o   c3  c3  
h1  h1  h1  h1  h1  h1  s4  o   c3  c3  h1  h1  h1  h1  h1  h1  s4  o   c3  c3  
h1  h1  h1  h1  h1  h1  s4  o   c3  c3  h1  h1  h1  h1  h1  h1  s4  o   c3  c3  
h1  h1  h1  h1  h1  h1  s4  o   c3  c3  h1  h1  h1  h1  h1  h1  s4  o   c3  c3  
h1  h1  h1  h1  h1  h1  s4  o   c3  c3  h1  h1  h1  h1  h1  h1  s4  o   c3  c3  
h1  h1  h1  h1  h1  h1  s4  o   c3  c3  h1  h1  h1  h1  h1  h1  s4  o   c3  c3  
h1  h1  h1  h1  h1  h1  s4  o   c3  c3  h1  h1  h1  h1  h1  h1  s4  o   c3  c3  
h1  h1  h1  h1  h1  h1  s4  o   c3  c3  h1  h1  h1  h1  h1  h1  s4  o   c3  c3  
h1  h1  h1  h1  h1  h1  s4  o   c3  c3  h1  h1  h1  h1  h1  h1  s4  o   c3  c3  
h1  h1  h1  h1  h1  h1  s4  o   c3  c3  h1  h1  h1  h1  h1  h1  s4  o   c3  c3  
h1  h1  h1  h1  h1  h1  s4  o   c3  c3  h1  h1  h1  h1  h1  h1  s4  o   c3  c3  
h1  h1  h1  h1  h1  h1  s4  o   c3  c3  h1  h1  h1  h1  h1  h1  s4  o   c3  c3  
h1  h1  h1  h1  h1  h1  s4  o   c3  c3  h1  h1  h1  h1  h1  h1  s4  o   c3  c3  
h1  h1  h1  h1  h1  h1  s4  o   c3  c3  h1  h1  h1  h1  h1  h1  s4  o   c3  c3  
h1  h1  h1  h1  h1  h1  s4  o   c3  c3  h1  h1  h1  h1  h1  h1  s4  o   c3  c3  
h1  h1  h1  h1  h1  h1  s4  o   c3  c3  h1  h1  h1  h1  h1  h1  s4  o   c3  c3  
h1  h1  h1  h1  h1  h1  s4  o   c3  c3  h1  h1  h1  h1  h1  h1  s4  o   c3  c3  
h1  h1  h1  h1  h1  h1  s4  o   c3  c3  h1  h1  h1  h1  h1  h1  s4  o   c3  c3  
h1  h1  h1  h1  h1  h1  s4  o   c3  c3  h1  h1  h1  h1  h1  h1  s4  o   c3  c3  
h1  h1  h1  h1  h1  h1  s4  o   c3  c3  h1  h1  h1  h1  h1  h1  s4  o   c3  c3  
h1  h1  h1  h1  h1  h1  s4  o   c3  c3  h1  h1  h1  h1  h1  h1  s4  o   c3  c3  
h1  h1  h1  h1  h1  h1  s4  o   c3  c3  h1  h1  h1  h1  h1  h1  s4  o   c3  c3  
h1  h1  h1  h1  h1  h1  s4  o   c3  c3  h1  h1  h1  h1  h1  h1  s4  o   c3  c3  
h1  h1  h1  h1  h1  h1  s4  o   c3  c3  h1  h1  h1  h1  h1  h1  s4  o   c3  c3  
h1  h1  h1  h1  h1  h1  s4  o   c3  c3  h1  h1  h1  h1  h1  h1  s4  o   c3  c3  
h1  h1  h1  h1  h1  h1  s4  o   c3  c3  h1  h1  h1  h1  h1  h1  s4  o   c3  c3  
h1  h1  h1  h1  h1  h1  s4  o   c3  c3  h1  h1  h1  h1  h1  h1  s4  o   c3  c3  
h1  h1  h1  h1  h1  h1  s4  o   c3  c3  h1  h1  h1  h1  h1  h1  s4  o   c3  c3  
h1  h1  h1  h1  h1  h1  s4  o   c3  c3  h1  h1  h1  h1  h1  h1  s4  o   c3  c3  
h1  h1  h1  h1  h1  h1  s4  o   c3  c3  h1  h1  h1  h1  h1  h1  s4  o   c3  c3  
h1  h1  h1  h1  h1  h1  s4  o   c3  c3  h1  h1  h1  h1  h1  h1  s4  o   c3  c3  
h1  h1  h1  h1  h1  h1  s4  o   c3  c3  h1  h1  h1  h1  h1  h1  s4  o   c3  c3  
h1  h1  h1  h1  h1  h1  s4  o   c3  c3  h1  h1  h1  h1  h1  h1  s4  o   c3  c3  
h1  h1  h1  h1  h1  h1  s4  o   c3  c3  h1  h1  h1  h1  h1  h1  s4  o   c3  c3  
h1  h1  h1  h1  h1  h1  s4  o   c3  c3  h1  h1  h1  h1  h1  h1  s4  o   c3  c3  
h1  h1  h1  h1  h1  h1  s4  o   c3  c3  h1  h1  h1  h1  h1  h1  s4  o   c3  c3  
h1  h1  h1  h1  h1  h1  s4  o   c3  c3  h1  h1  h1  h1  h1  h1  s4  o   c3  c3  
h1  h1  h1  h1  h1  h1  s4  o   c3  c3  h1  h1  h1  h1  h1  h1  s4  o   c3  c3  
h1  h1  h1  h1  h1  h1  s4  o   c3  c3  h1  h1  h1  h1  h1  h1  s4  o   c3  c3  
h1  h1  h1  h1  h1  h1  s4  o   c3  c3  h1  h1  h1  h1  h1  h1  s4  o   c3  c3  
h1  h1  h1  h1  h1  h1  s4  o   c3  c3  h1  h1  h1  h1  h1  h1  s4  o   c3  c3  
h1  h1  h1  h1  h1  h1  s4  o   c3  c3  h1  h1  h1  h1  h1  h1  s4  o   c3  c3  
h1  h1  h1  h1  h1  h1  s4  o   c3  c3  h1  h1  h1  h1  h1  h1  s4  o   c3  c3  
h1  h1  h1  h1  h1  h1  s4  o   c3  c3  h1  h1  h1  h1  h1  h1  s4  o   c3  c3  
h1  h1  h1  h1  h1  h1  s4  o   c3  c3  h1  h1  h1  h1  h1  h1  s4  o   c3  c3  
h1  h1  h1  h1  h1  h1  s4  o   c3  c3  h1  h1  h1  h1  h1  h1  s4  o   c3  c3  
h1  h1  h1  h1  h1  h1  s4  o   c3  c3  h1  h1  h1  h1  h1  h1  s4  o   c3  c3  
h1  h1  h1  h1  h1  h1  s4  o   c3  c3  h1  h1  h1  h1  h1  h1  s4  o   c3  c3  
h1  h1  h1  h1  h1  h1  s4  o   c3  c3  h1  h1  h1  h1  h1  h1  s4  o   c3  c3  
h1  h1  h1  h1  h1  h1  s4  o   c3  c3  h1  h1  h1  h1  h1  h1  s4  o   c3  c3  
h1  h1  h1  h1  h1  h1  s4  o   c3  c3  h1  h1  h1  h1  h1  h1  s4  o   c3  c3  
h1  h1  h1  h1  h1  h1  s4  o   c3  c3  h1  h1  h1  h1  h1  h1  s4  o   c3  c3  
h1  h1  h1  h1  h1  h1  s4  o   c3  c3  h1  h1  h1  h1  h1  h1  s4  o   c3  c3  
h1  h1  h1  h1  h1  h1  s4  o   c3  c3  h1  h1  h1  h1  h1  h1  s4  o   c3  c3  
h1  h1  h1  h1  h1  h1  s4  o   c3  c3  h1  h1  h1  h1  h1  h1  s4  o   c3  c3  
h1  h1  h1  h1  h1  h1  s4  o   c3  c3  h1  h1  h1  h1  h1  h1  s4  o   c3  c3  
h1  h1  h1  h1  h1  h1  s4  o   c3  c3  h1  h1  h1  h1  h1  h1  s4  o   c3  c3  
h1  h1  h1  h1  h1  h1  s4  o   c3  c3  h1  h1  h1  h1  h1  h1  s4  o   c3  c3  
h1  h1  h1  h1  h1  h1  s4  o   c3  c3  h1  h1  h1  h1  h1  h1  s4  o   c3  c3  
h1  h1  h1  h1  h1  h1  s4  o   c3  c3  h1  h1  h1  h1  h1  h1  s4  o   c3  c3  
h1  h1  h1  h1  h1  h1  s4  o   c3  c3  h1  h1  h1  h1  h1  h1  
%FLAG TREE_CHAIN_CLASSIFICATION                                                 
%FORMAT(20a4)                                                                   
BLA BLA BLA BLA BLA BLA BLA BLA BLA BLA BLA BLA BLA BLA BLA BLA BLA BLA BLA BLA 
BLA BLA BLA BLA BLA BLA BLA BLA BLA BLA BLA BLA BLA BLA BLA BLA BLA BLA BLA BLA 
BLA BLA BLA BLA BLA BLA BLA BLA BLA BLA BLA BLA BLA BLA BLA BLA BLA BLA BLA BLA 
BLA BLA BLA BLA BLA BLA BLA BLA BLA BLA BLA BLA BLA BLA BLA BLA BLA BLA BLA BLA 
BLA BLA BLA BLA BLA BLA BLA BLA BLA BLA BLA BLA BLA BLA BLA BLA BLA BLA BLA BLA 
BLA BLA BLA BLA BLA BLA BLA BLA BLA BLA BLA BLA BLA BLA BLA BLA BLA BLA BLA BLA 
BLA BLA BLA BLA BLA BLA BLA BLA BLA BLA BLA BLA BLA BLA BLA BLA BLA BLA BLA BLA 
BLA BLA BLA BLA BLA BLA BLA BLA BLA BLA BLA BLA BLA BLA BLA BLA BLA BLA BLA BLA 
BLA BLA BLA BLA BLA BLA BLA BLA BLA BLA BLA BLA BLA BLA BLA BLA BLA BLA BLA BLA 
BLA BLA BLA BLA BLA BLA BLA BLA BLA BLA BLA BLA BLA BLA BLA BLA BLA BLA BLA BLA 
BLA BLA BLA BLA BLA BLA BLA BLA BLA BLA BLA BLA BLA BLA BLA BLA BLA BLA BLA BLA 
BLA BLA BLA BLA BLA BLA BLA BLA BLA BLA BLA BLA BLA BLA BLA BLA BLA BLA BLA BLA 
BLA BLA BLA BLA BLA BLA BLA BLA BLA BLA BLA BLA BLA BLA BLA BLA BLA BLA BLA BLA 
BLA BLA BLA BLA BLA BLA BLA BLA BLA BLA BLA BLA BLA BLA BLA BLA BLA BLA BLA BLA 
BLA BLA BLA BLA BLA BLA BLA BLA BLA BLA BLA BLA BLA BLA BLA BLA BLA BLA BLA BLA 
BLA BLA BLA BLA BLA BLA BLA BLA BLA BLA BLA BLA BLA BLA BLA BLA BLA BLA BLA BLA 
BLA BLA BLA BLA BLA BLA BLA BLA BLA BLA BLA BLA BLA BLA BLA BLA BLA BLA BLA BLA 
BLA BLA BLA BLA BLA BLA BLA BLA BLA BLA BLA BLA BLA BLA BLA BLA BLA BLA BLA BLA 
BLA BLA BLA BLA BLA BLA BLA BLA BLA BLA BLA BLA BLA BLA BLA BLA BLA BLA BLA BLA 
BLA BLA BLA BLA BLA BLA BLA BLA BLA BLA BLA BLA BLA BLA BLA BLA BLA BLA BLA BLA 
BLA BLA BLA BLA BLA BLA BLA BLA BLA BLA BLA BLA BLA BLA BLA BLA BLA BLA BLA BLA 
BLA BLA BLA BLA BLA BLA BLA BLA BLA BLA BLA BLA BLA BLA BLA BLA BLA BLA BLA BLA 
BLA BLA BLA BLA BLA BLA BLA BLA BLA BLA BLA BLA BLA BLA BLA BLA BLA BLA BLA BLA 
BLA BLA BLA BLA BLA BLA BLA BLA BLA BLA BLA BLA BLA BLA BLA BLA BLA BLA BLA BLA 
BLA BLA BLA BLA BLA BLA BLA BLA BLA BLA BLA BLA BLA BLA BLA BLA BLA BLA BLA BLA 
BLA BLA BLA BLA BLA BLA BLA BLA BLA BLA BLA BLA BLA BLA BLA BLA BLA BLA BLA BLA 
BLA BLA BLA BLA BLA BLA BLA BLA BLA BLA BLA BLA BLA BLA BLA BLA BLA BLA BLA BLA 
BLA BLA BLA BLA BLA BLA BLA BLA BLA BLA BLA BLA BLA BLA BLA BLA BLA BLA BLA BLA 
BLA BLA BLA BLA BLA BLA BLA BLA BLA BLA BLA BLA BLA BLA BLA BLA BLA BLA BLA BLA 
BLA BLA BLA BLA BLA BLA BLA BLA BLA BLA BLA BLA BLA BLA BLA BLA BLA BLA BLA BLA 
BLA BLA BLA BLA BLA BLA BLA BLA BLA BLA BLA BLA BLA BLA BLA BLA BLA BLA BLA BLA 
BLA BLA BLA BLA BLA BLA BLA BLA BLA BLA BLA BLA BLA BLA BLA BLA BLA BLA BLA BLA 
BLA BLA BLA BLA BLA BLA BLA BLA BLA BLA BLA BLA BLA BLA BLA BLA BLA BLA BLA BLA 
BLA BLA BLA BLA BLA BLA BLA BLA BLA BLA BLA BLA BLA BLA BLA BLA BLA BLA BLA BLA 
BLA BLA BLA BLA BLA BLA BLA BLA BLA BLA BLA BLA BLA BLA BLA BLA BLA BLA BLA BLA 
BLA BLA BLA BLA BLA BLA BLA BLA BLA BLA BLA BLA BLA BLA BLA BLA BLA BLA BLA BLA 
BLA BLA BLA BLA BLA BLA BLA BLA BLA BLA BLA BLA BLA BLA BLA BLA BLA BLA BLA BLA 
BLA BLA BLA BLA BLA BLA BLA BLA BLA BLA BLA BLA BLA BLA BLA BLA BLA BLA BLA BLA 
BLA BLA BLA BLA BLA BLA BLA BLA BLA BLA BLA BLA BLA BLA BLA BLA BLA BLA BLA BLA 
BLA BLA BLA BLA BLA BLA BLA BLA BLA BLA BLA BLA BLA BLA BLA BLA BLA BLA BLA BLA 
BLA BLA BLA BLA BLA BLA BLA BLA BLA BLA BLA BLA BLA BLA BLA BLA BLA BLA BLA BLA 
BLA BLA BLA BLA BLA BLA BLA BLA BLA BLA BLA BLA BLA BLA BLA BLA BLA BLA BLA BLA 
BLA BLA BLA BLA BLA BLA BLA BLA BLA BLA BLA BLA BLA BLA BLA BLA BLA BLA BLA BLA 
BLA BLA BLA BLA BLA BLA BLA BLA BLA BLA BLA BLA BLA BLA BLA BLA BLA BLA BLA BLA 
BLA BLA BLA BLA BLA BLA BLA BLA BLA BLA BLA BLA BLA BLA BLA BLA BLA BLA BLA BLA 
BLA BLA BLA BLA BLA BLA BLA BLA BLA BLA BLA BLA BLA BLA BLA BLA BLA BLA BLA BLA 
BLA BLA BLA BLA BLA BLA BLA BLA BLA BLA BLA BLA BLA BLA BLA BLA BLA BLA BLA BLA 
BLA BLA BLA BLA BLA BLA BLA BLA BLA BLA BLA BLA BLA BLA BLA BLA BLA BLA BLA BLA 
BLA BLA BLA BLA BLA BLA BLA BLA BLA BLA BLA BLA BLA BLA BLA BLA BLA BLA BLA BLA 
BLA BLA BLA BLA BLA BLA BLA BLA BLA BLA BLA BLA BLA BLA BLA BLA BLA BLA BLA BLA 
BLA BLA BLA BLA BLA BLA BLA BLA BLA BLA BLA BLA BLA BLA BLA BLA BLA BLA BLA BLA 
BLA BLA BLA BLA BLA BLA BLA BLA BLA BLA BLA BLA BLA BLA BLA BLA BLA BLA BLA BLA 
BLA BLA BLA BLA BLA BLA BLA BLA BLA BLA BLA BLA BLA BLA BLA BLA BLA BLA BLA BLA 
BLA BLA BLA BLA BLA BLA BLA BLA BLA BLA BLA BLA BLA BLA BLA BLA BLA BLA BLA BLA 
BLA BLA BLA BLA BLA BLA BLA BLA BLA BLA BLA BLA BLA BLA BLA BLA BLA BLA BLA BLA 
BLA BLA BLA BLA BLA BLA BLA BLA BLA BLA BLA BLA BLA BLA BLA BLA BLA BLA BLA BLA 
BLA BLA BLA BLA BLA BLA BLA BLA BLA BLA BLA BLA BLA BLA BLA BLA BLA BLA BLA BLA 
BLA BLA BLA BLA BLA BLA BLA BLA BLA BLA BLA BLA BLA BLA BLA BLA BLA BLA BLA BLA 
BLA BLA BLA BLA BLA BLA BLA BLA BLA BLA BLA BLA BLA BLA BLA BLA BLA BLA BLA BLA 
BLA BLA BLA BLA BLA BLA BLA BLA BLA BLA BLA BLA BLA BLA BLA BLA BLA BLA BLA BLA 
BLA BLA BLA BLA BLA BLA BLA BLA BLA BLA BLA BLA BLA BLA BLA BLA BLA BLA BLA BLA 
BLA BLA BLA BLA BLA BLA BLA BLA BLA BLA BLA BLA BLA BLA BLA BLA BLA BLA BLA BLA 
BLA BLA BLA BLA BLA BLA BLA BLA BLA BLA BLA BLA BLA BLA BLA BLA BLA BLA BLA BLA 
BLA BLA BLA BLA BLA BLA BLA BLA BLA BLA BLA BLA BLA BLA BLA BLA BLA BLA BLA BLA 
BLA BLA BLA BLA BLA BLA BLA BLA BLA BLA BLA BLA BLA BLA BLA BLA BLA BLA BLA BLA 
BLA BLA BLA BLA BLA BLA BLA BLA BLA BLA BLA BLA BLA BLA BLA BLA BLA BLA BLA BLA 
BLA BLA BLA BLA BLA BLA BLA BLA BLA BLA BLA BLA BLA BLA BLA BLA BLA BLA BLA BLA 
BLA BLA BLA BLA BLA BLA BLA BLA BLA BLA BLA BLA BLA BLA BLA BLA BLA BLA BLA BLA 
BLA BLA BLA BLA BLA BLA BLA BLA BLA BLA BLA BLA BLA BLA BLA BLA BLA BLA BLA BLA 
BLA BLA BLA BLA BLA BLA BLA BLA BLA BLA BLA BLA BLA BLA BLA BLA BLA BLA BLA BLA 
BLA BLA BLA BLA BLA BLA BLA BLA BLA BLA BLA BLA BLA BLA BLA BLA BLA BLA BLA BLA 
BLA BLA BLA BLA BLA BLA BLA BLA BLA BLA BLA BLA BLA BLA BLA BLA BLA BLA BLA BLA 
BLA BLA BLA BLA BLA BLA BLA BLA BLA BLA BLA BLA BLA BLA BLA BLA BLA BLA BLA BLA 
BLA BLA BLA BLA BLA BLA BLA BLA BLA BLA BLA BLA BLA BLA BLA BLA BLA BLA BLA BLA 
BLA BLA BLA BLA BLA BLA BLA BLA BLA BLA BLA BLA BLA BLA BLA BLA BLA BLA BLA BLA 
BLA BLA BLA BLA BLA BLA BLA BLA BLA BLA BLA BLA BLA BLA BLA BLA BLA BLA BLA BLA 
BLA BLA BLA BLA BLA BLA BLA BLA BLA BLA BLA BLA BLA BLA BLA BLA BLA BLA BLA BLA 
BLA BLA BLA BLA BLA BLA BLA BLA BLA BLA BLA BLA BLA BLA BLA BLA BLA BLA BLA BLA 
BLA BLA BLA BLA BLA BLA BLA BLA BLA BLA BLA BLA BLA BLA BLA BLA BLA BLA BLA BLA 
BLA BLA BLA BLA BLA BLA BLA BLA BLA BLA BLA BLA BLA BLA BLA BLA BLA BLA BLA BLA 
BLA BLA BLA BLA BLA BLA BLA BLA BLA BLA BLA BLA BLA BLA BLA BLA BLA BLA BLA BLA 
BLA BLA BLA BLA BLA BLA BLA BLA BLA BLA BLA BLA BLA BLA BLA BLA BLA BLA BLA BLA 
BLA BLA BLA BLA BLA BLA BLA BLA BLA BLA BLA BLA BLA BLA BLA BLA BLA BLA BLA BLA 
BLA BLA BLA BLA BLA BLA BLA BLA BLA BLA BLA BLA BLA BLA BLA BLA BLA BLA BLA BLA 
BLA BLA BLA BLA BLA BLA BLA BLA BLA BLA BLA BLA BLA BLA BLA BLA BLA BLA BLA BLA 
BLA BLA BLA BLA BLA BLA BLA BLA BLA BLA BLA BLA BLA BLA BLA BLA BLA BLA BLA BLA 
BLA BLA BLA BLA BLA BLA BLA BLA BLA BLA BLA BLA BLA BLA BLA BLA BLA BLA BLA BLA 
BLA BLA BLA BLA BLA BLA BLA BLA BLA BLA BLA BLA BLA BLA BLA BLA BLA BLA BLA BLA 
BLA BLA BLA BLA BLA BLA BLA BLA BLA BLA BLA BLA BLA BLA BLA BLA BLA BLA BLA BLA 
BLA BLA BLA BLA BLA BLA BLA BLA BLA BLA BLA BLA BLA BLA BLA BLA BLA BLA BLA BLA 
BLA BLA BLA BLA BLA BLA BLA BLA BLA BLA BLA BLA BLA BLA BLA BLA BLA BLA BLA BLA 
BLA BLA BLA BLA BLA BLA BLA BLA BLA BLA BLA BLA BLA BLA BLA BLA BLA BLA BLA BLA 
BLA BLA BLA BLA BLA BLA BLA BLA BLA BLA BLA BLA BLA BLA BLA BLA BLA BLA BLA BLA 
BLA BLA BLA BLA BLA BLA BLA BLA BLA BLA BLA BLA BLA BLA BLA BLA BLA BLA BLA BLA 
BLA BLA BLA BLA BLA BLA BLA BLA BLA BLA BLA BLA BLA BLA BLA BLA BLA BLA BLA BLA 
BLA BLA BLA BLA BLA BLA BLA BLA BLA BLA BLA BLA BLA BLA BLA BLA BLA BLA BLA BLA 
BLA BLA BLA BLA BLA BLA BLA BLA BLA BLA BLA BLA BLA BLA BLA BLA BLA BLA BLA BLA 
BLA BLA BLA BLA BLA BLA BLA BLA BLA BLA BLA BLA BLA BLA BLA BLA BLA BLA BLA BLA 
BLA BLA BLA BLA BLA BLA BLA BLA BLA BLA BLA BLA BLA BLA BLA BLA BLA BLA BLA BLA 
BLA BLA BLA BLA BLA BLA BLA BLA BLA BLA BLA BLA BLA BLA BLA BLA BLA BLA BLA BLA 
BLA BLA BLA BLA BLA BLA BLA BLA BLA BLA BLA BLA BLA BLA BLA BLA BLA BLA BLA BLA 
BLA BLA BLA BLA BLA BLA BLA BLA BLA BLA BLA BLA BLA BLA BLA BLA BLA BLA BLA BLA 
BLA BLA BLA BLA BLA BLA BLA BLA BLA BLA BLA BLA BLA BLA BLA BLA BLA BLA BLA BLA 
BLA BLA BLA BLA BLA BLA BLA BLA BLA BLA BLA BLA BLA BLA BLA BLA BLA BLA BLA BLA 
BLA BLA BLA BLA BLA BLA BLA BLA BLA BLA BLA BLA BLA BLA BLA BLA BLA BLA BLA BLA 
BLA BLA BLA BLA BLA BLA BLA BLA BLA BLA BLA BLA BLA BLA BLA BLA BLA BLA BLA BLA 
BLA BLA BLA BLA BLA BLA BLA BLA BLA BLA BLA BLA BLA BLA BLA BLA BLA BLA BLA BLA 
BLA BLA BLA BLA BLA BLA BLA BLA BLA BLA BLA BLA BLA BLA BLA BLA BLA BLA BLA BLA 
BLA BLA BLA BLA BLA BLA BLA BLA BLA BLA BLA BLA BLA BLA BLA BLA BLA BLA BLA BLA 
BLA BLA BLA BLA BLA BLA BLA BLA BLA BLA BLA BLA BLA BLA BLA BLA BLA BLA BLA BLA 
BLA BLA BLA BLA BLA BLA BLA BLA BLA BLA BLA BLA BLA BLA BLA BLA BLA BLA BLA BLA 
BLA BLA BLA BLA BLA BLA BLA BLA BLA BLA BLA BLA BLA BLA BLA BLA BLA BLA BLA BLA 
BLA BLA BLA BLA BLA BLA BLA BLA BLA BLA BLA BLA BLA BLA BLA BLA BLA BLA BLA BLA 
BLA BLA BLA BLA BLA BLA BLA BLA BLA BLA BLA BLA BLA BLA BLA BLA BLA BLA BLA BLA 
BLA BLA BLA BLA BLA BLA BLA BLA BLA BLA BLA BLA BLA BLA BLA BLA BLA BLA BLA BLA 
BLA BLA BLA BLA BLA BLA BLA BLA BLA BLA BLA BLA BLA BLA BLA BLA BLA BLA BLA BLA 
BLA BLA BLA BLA BLA BLA BLA BLA BLA BLA BLA BLA BLA BLA BLA BLA BLA BLA BLA BLA 
BLA BLA BLA BLA BLA BLA BLA BLA BLA BLA BLA BLA BLA BLA BLA BLA BLA BLA BLA BLA 
BLA BLA BLA BLA BLA BLA BLA BLA BLA BLA BLA BLA BLA BLA BLA BLA BLA BLA BLA BLA 
BLA BLA BLA BLA BLA BLA BLA BLA BLA BLA BLA BLA BLA BLA BLA BLA BLA BLA BLA BLA 
BLA BLA BLA BLA BLA BLA BLA BLA BLA BLA BLA BLA BLA BLA BLA BLA BLA BLA BLA BLA 
BLA BLA BLA BLA BLA BLA BLA BLA BLA BLA BLA BLA BLA BLA BLA BLA BLA BLA BLA BLA 
BLA BLA BLA BLA BLA BLA BLA BLA BLA BLA BLA BLA BLA BLA BLA BLA BLA BLA BLA BLA 
BLA BLA BLA BLA BLA BLA BLA BLA BLA BLA BLA BLA BLA BLA BLA BLA BLA BLA BLA BLA 
BLA BLA BLA BLA BLA BLA BLA BLA BLA BLA BLA BLA BLA BLA BLA BLA BLA BLA BLA BLA 
BLA BLA BLA BLA BLA BLA BLA BLA BLA BLA BLA BLA BLA BLA BLA BLA BLA BLA BLA BLA 
BLA BLA BLA BLA BLA BLA BLA BLA BLA BLA BLA BLA BLA BLA BLA BLA BLA BLA BLA BLA 
BLA BLA BLA BLA BLA BLA BLA BLA BLA BLA BLA BLA BLA BLA BLA BLA BLA BLA BLA BLA 
BLA BLA BLA BLA BLA BLA BLA BLA BLA BLA BLA BLA BLA BLA BLA BLA BLA BLA BLA BLA 
BLA BLA BLA BLA BLA BLA BLA BLA BLA BLA BLA BLA BLA BLA BLA BLA BLA BLA BLA BLA 
BLA BLA BLA BLA BLA BLA BLA BLA BLA BLA BLA BLA BLA BLA BLA BLA BLA BLA BLA BLA 
BLA BLA BLA BLA BLA BLA BLA BLA BLA BLA BLA BLA BLA BLA BLA BLA BLA BLA BLA BLA 
BLA BLA BLA BLA BLA BLA BLA BLA BLA BLA BLA BLA BLA BLA BLA BLA BLA BLA BLA BLA 
BLA BLA BLA BLA BLA BLA BLA BLA BLA BLA BLA BLA BLA BLA BLA BLA BLA BLA BLA BLA 
BLA BLA BLA BLA BLA BLA BLA BLA BLA BLA BLA BLA BLA BLA BLA BLA BLA BLA BLA BLA 
BLA BLA BLA BLA BLA BLA BLA BLA BLA BLA BLA BLA BLA BLA BLA BLA BLA BLA BLA BLA 
BLA BLA BLA BLA BLA BLA BLA BLA BLA BLA BLA BLA BLA BLA BLA BLA BLA BLA BLA BLA 
BLA BLA BLA BLA BLA BLA BLA BLA BLA BLA BLA BLA BLA BLA BLA BLA BLA BLA BLA BLA 
BLA BLA BLA BLA BLA BLA BLA BLA BLA BLA BLA BLA BLA BLA BLA BLA BLA BLA BLA BLA 
BLA BLA BLA BLA BLA BLA BLA BLA BLA BLA BLA BLA BLA BLA BLA BLA BLA BLA BLA BLA 
BLA BLA BLA BLA BLA BLA BLA BLA BLA BLA BLA BLA BLA BLA BLA BLA BLA BLA BLA BLA 
BLA BLA BLA BLA BLA BLA BLA BLA BLA BLA BLA BLA BLA BLA BLA BLA BLA BLA BLA BLA 
BLA BLA BLA BLA BLA BLA BLA BLA BLA BLA BLA BLA BLA BLA BLA BLA BLA BLA BLA BLA 
BLA BLA BLA BLA BLA BLA BLA BLA BLA BLA BLA BLA BLA BLA BLA BLA BLA BLA BLA BLA 
BLA BLA BLA BLA BLA BLA BLA BLA BLA BLA BLA BLA BLA BLA BLA BLA BLA BLA BLA BLA 
BLA BLA BLA BLA BLA BLA BLA BLA BLA BLA BLA BLA BLA BLA BLA BLA BLA BLA BLA BLA 
BLA BLA BLA BLA BLA BLA BLA BLA BLA BLA BLA BLA BLA BLA BLA BLA BLA BLA BLA BLA 
BLA BLA BLA BLA BLA BLA BLA BLA BLA BLA BLA BLA BLA BLA BLA BLA BLA BLA BLA BLA 
BLA BLA BLA BLA BLA BLA BLA BLA BLA BLA BLA BLA BLA BLA BLA BLA BLA BLA BLA BLA 
BLA BLA BLA BLA BLA BLA BLA BLA BLA BLA BLA BLA BLA BLA BLA BLA BLA BLA BLA BLA 
BLA BLA BLA BLA BLA BLA BLA BLA BLA BLA BLA BLA BLA BLA BLA BLA BLA BLA BLA BLA 
BLA BLA BLA BLA BLA BLA BLA BLA BLA BLA BLA BLA BLA BLA BLA BLA BLA BLA BLA BLA 
BLA BLA BLA BLA BLA BLA BLA BLA BLA BLA BLA BLA BLA BLA BLA BLA BLA BLA BLA BLA 
BLA BLA BLA BLA BLA BLA BLA BLA BLA BLA BLA BLA BLA BLA BLA BLA BLA BLA BLA BLA 
BLA BLA BLA BLA BLA BLA BLA BLA BLA BLA BLA BLA BLA BLA BLA BLA BLA BLA BLA BLA 
BLA BLA BLA BLA BLA BLA BLA BLA BLA BLA BLA BLA BLA BLA BLA BLA BLA BLA BLA BLA 
BLA BLA BLA BLA BLA BLA BLA BLA BLA BLA BLA BLA BLA BLA BLA BLA BLA BLA BLA BLA 
BLA BLA BLA BLA BLA BLA BLA BLA BLA BLA BLA BLA BLA BLA BLA BLA BLA BLA BLA BLA 
BLA BLA BLA BLA BLA BLA BLA BLA BLA BLA BLA BLA BLA BLA BLA BLA BLA BLA BLA BLA 
BLA BLA BLA BLA BLA BLA BLA BLA BLA BLA BLA BLA BLA BLA BLA BLA BLA BLA BLA BLA 
BLA BLA BLA BLA BLA BLA BLA BLA BLA BLA BLA BLA BLA BLA BLA BLA BLA BLA BLA BLA 
BLA BLA BLA BLA BLA BLA BLA BLA BLA BLA BLA BLA BLA BLA BLA BLA BLA BLA BLA BLA 
BLA BLA BLA BLA BLA BLA BLA BLA BLA BLA BLA BLA BLA BLA BLA BLA BLA BLA BLA BLA 
BLA BLA BLA BLA BLA BLA BLA BLA BLA BLA BLA BLA BLA BLA BLA BLA BLA BLA BLA BLA 
BLA BLA BLA BLA BLA BLA BLA BLA BLA BLA BLA BLA BLA BLA BLA BLA BLA BLA BLA BLA 
BLA BLA BLA BLA BLA BLA BLA BLA BLA BLA BLA BLA BLA BLA BLA BLA BLA BLA BLA BLA 
BLA BLA BLA BLA BLA BLA BLA BLA BLA BLA BLA BLA BLA BLA BLA BLA BLA BLA BLA BLA 
BLA BLA BLA BLA BLA BLA BLA BLA BLA BLA BLA BLA BLA BLA BLA BLA BLA BLA BLA BLA 
BLA BLA BLA BLA BLA BLA BLA BLA BLA BLA BLA BLA BLA BLA BLA BLA BLA BLA BLA BLA 
BLA BLA BLA BLA BLA BLA BLA BLA BLA BLA BLA BLA BLA BLA BLA BLA BLA BLA BLA BLA 
BLA BLA BLA BLA BLA BLA BLA BLA BLA BLA BLA BLA BLA BLA BLA BLA BLA BLA BLA BLA 
BLA BLA BLA BLA BLA BLA BLA BLA BLA BLA BLA BLA BLA BLA BLA BLA 
%FLAG JOIN_ARRAY                                                                
%FORMAT(10I8)                                                                   
       0       0       0       0       0       0       0       0       0       0
       0       0       0       0       0       0       0       0       0       0
       0       0       0       0       0       0       0       0       0       0
       0       0       0       0       0       0       0       0       0       0
       0       0       0       0       0       0       0       0       0       0
       0       0       0       0       0       0       0       0       0       0
       0       0       0       0       0       0       0       0       0       0
       0       0       0       0       0       0       0       0       0       0
       0       0       0       0       0       0       0       0       0       0
       0       0       0       0       0       0       0       0       0       0
       0       0       0       0       0       0       0       0       0       0
       0       0       0       0       0       0       0       0       0       0
       0       0       0       0       0       0       0       0       0       0
       0       0       0       0       0       0       0       0       0       0
       0       0       0       0       0       0       0       0       0       0
       0       0       0       0       0       0       0       0       0       0
       0       0       0       0       0       0       0       0       0       0
       0       0       0       0       0       0       0       0       0       0
       0       0       0       0       0       0       0       0       0       0
       0       0       0       0       0       0       0       0       0       0
       0       0       0       0       0       0       0       0       0       0
       0       0       0       0       0       0       0       0       0       0
       0       0       0       0       0       0       0       0       0       0
       0       0       0       0       0       0       0       0       0       0
       0       0       0       0       0       0       0       0       0       0
       0       0       0       0       0       0       0       0       0       0
       0       0       0       0       0       0       0       0       0       0
       0       0       0       0       0       0       0       0       0       0
       0       0       0       0       0       0       0       0       0       0
       0       0       0       0       0       0       0       0       0       0
       0       0       0       0       0       0       0       0       0       0
       0       0       0       0       0       0       0       0       0       0
       0       0       0       0       0       0       0       0       0       0
       0       0       0       0       0       0       0       0       0       0
       0       0       0       0       0       0       0       0       0       0
       0       0       0       0       0       0       0       0       0       0
       0       0       0       0       0       0       0       0       0       0
       0       0       0       0       0       0       0       0       0       0
       0       0       0       0       0       0       0       0       0       0
       0       0       0       0       0       0       0       0       0       0
       0       0       0       0       0       0       0       0       0       0
       0       0       0       0       0       0       0       0       0       0
       0       0       0       0       0       0       0       0       0       0
       0       0       0       0       0       0       0       0       0       0
       0       0       0       0       0       0       0       0       0       0
       0       0       0       0       0       0       0       0       0       0
       0       0       0       0       0       0       0       0       0       0
       0       0       0       0       0       0       0       0       0       0
       0       0       0       0       0       0       0       0       0       0
       0       0       0       0       0       0       0       0       0       0
       0       0       0       0       0       0       0       0       0       0
       0       0       0       0       0       0       0       0       0       0
       0       0       0       0       0       0       0       0       0       0
       0       0       0       0       0       0       0       0       0       0
       0       0       0       0       0       0       0       0       0       0
       0       0       0       0       0       0       0       0       0       0
       0       0       0       0       0       0       0       0       0       0
       0       0       0       0       0       0       0       0       0       0
       0       0       0       0       0       0       0       0       0       0
       0       0       0       0       0       0       0       0       0       0
       0       0       0       0       0       0       0       0       0       0
       0       0       0       0       0       0       0       0       0       0
       0       0       0       0       0       0       0       0       0       0
       0       0       0       0       0       0       0       0       0       0
       0       0       0       0       0       0       0       0       0       0
       0       0       0       0       0       0       0       0       0       0
       0       0       0       0       0       0       0       0       0       0
       0       0       0       0       0       0       0       0       0       0
       0       0       0       0       0       0       0       0       0       0
       0       0       0       0       0       0       0       0       0       0
       0       0       0       0       0       0       0       0       0       0
       0       0       0       0       0       0       0       0       0       0
       0       0       0       0       0       0       0       0       0       0
       0       0       0       0       0       0       0       0       0       0
       0       0       0       0       0       0       0       0       0       0
       0       0       0       0       0       0       0       0       0       0
       0       0       0       0       0       0       0       0       0       0
       0       0       0       0       0       0       0       0       0       0
       0       0       0       0       0       0       0       0       0       0
       0       0       0       0       0       0       0       0       0       0
       0       0       0       0       0       0       0       0       0       0
       0       0       0       0       0       0       0       0       0       0
       0       0       0       0       0       0       0       0       0       0
       0       0       0       0       0       0       0       0       0       0
       0       0       0       0       0       0       0       0       0       0
       0       0       0       0       0       0       0       0       0       0
       0       0       0       0       0       0       0       0       0       0
       0       0       0       0       0       0       0       0       0       0
       0       0       0       0       0       0       0       0       0       0
       0       0       0       0       0       0       0       0       0       0
       0       0       0       0       0       0       0       0       0       0
       0       0       0       0       0       0       0       0       0       0
       0       0       0       0       0       0       0       0       0       0
       0       0       0       0       0       0       0       0       0       0
       0       0       0       0       0       0       0       0       0       0
       0       0       0       0       0       0       0       0       0       0
       0       0       0       0       0       0       0       0       0       0
       0       0       0       0       0       0       0       0       0       0
       0       0       0       0       0       0       0       0       0       0
       0       0       0       0       0       0       0       0       0       0
       0       0       0       0       0       0       0       0       0       0
       0       0       0       0       0       0       0       0       0       0
       0       0       0       0       0       0       0       0       0       0
       0       0       0       0       0       0       0       0       0       0
       0       0       0       0       0       0       0       0       0       0
       0       0       0       0       0       0       0       0       0       0
       0       0       0       0       0       0       0       0       0       0
       0       0       0       0       0       0       0       0       0       0
       0       0       0       0       0       0       0       0       0       0
       0       0       0       0       0       0       0       0       0       0
       0       0       0       0       0       0       0       0       0       0
       0       0       0       0       0       0       0       0       0       0
       0       0       0       0       0       0       0       0       0       0
       0       0       0       0       0       0       0       0       0       0
       0       0       0       0       0       0       0       0       0       0
       0       0       0       0       0       0       0       0       0       0
       0       0       0       0       0       0       0       0       0       0
       0       0       0       0       0       0       0       0       0       0
       0       0       0       0       0       0       0       0       0       0
       0       0       0       0       0       0       0       0       0       0
       0       0       0       0       0       0       0       0       0       0
       0       0       0       0       0       0       0       0       0       0
       0       0       0       0       0       0       0       0       0       0
       0       0       0       0       0       0       0       0       0       0
       0       0       0       0       0       0       0       0       0       0
       0       0       0       0       0       0       0       0       0       0
       0       0       0       0       0       0       0       0       0       0
       0       0       0       0       0       0       0       0       0       0
       0       0       0       0       0       0       0       0       0       0
       0       0       0       0       0       0       0       0       0       0
       0       0       0       0       0       0       0       0       0       0
       0       0       0       0       0       0       0       0       0       0
       0       0       0       0       0       0       0       0       0       0
       0       0       0       0       0       0       0       0       0       0
       0       0       0       0       0       0       0       0       0       0
       0       0       0       0       0       0       0       0       0       0
       0       0       0       0       0       0       0       0       0       0
       0       0       0       0       0       0       0       0       0       0
       0       0       0       0       0       0       0       0       0       0
       0       0       0       0       0       0       0       0       0       0
       0       0       0       0       0       0       0       0       0       0
       0       0       0       0       0       0       0       0       0       0
       0       0       0       0       0       0       0       0       0       0
       0       0       0       0       0       0       0       0       0       0
       0       0       0       0       0       0       0       0       0       0
       0       0       0       0       0       0       0       0       0       0
       0       0       0       0       0       0       0       0       0       0
       0       0       0       0       0       0       0       0       0       0
       0       0       0       0       0       0       0       0       0       0
       0       0       0       0       0       0       0       0       0       0
       0       0       0       0       0       0       0       0       0       0
       0       0       0       0       0       0       0       0       0       0
       0       0       0       0       0       0       0       0       0       0
       0       0       0       0       0       0       0       0       0       0
       0       0       0       0       0       0       0       0       0       0
       0       0       0       0       0       0       0       0       0       0
       0       0       0       0       0       0       0       0       0       0
       0       0       0       0       0       0       0       0       0       0
       0       0       0       0       0       0       0       0       0       0
       0       0       0       0       0       0       0       0       0       0
       0       0       0       0       0       0       0       0       0       0
       0       0       0       0       0       0       0       0       0       0
       0       0       0       0       0       0       0       0       0       0
       0       0       0       0       0       0       0       0       0       0
       0       0       0       0       0       0       0       0       0       0
       0       0       0       0       0       0       0       0       0       0
       0       0       0       0       0       0       0       0       0       0
       0       0       0       0       0       0       0       0       0       0
       0       0       0       0       0       0       0       0       0       0
       0       0       0       0       0       0       0       0       0       0
       0       0       0       0       0       0       0       0       0       0
       0       0       0       0       0       0       0       0       0       0
       0       0       0       0       0       0       0       0       0       0
       0       0       0       0       0       0       0       0       0       0
       0       0       0       0       0       0       0       0       0       0
       0       0       0       0       0       0       0       0       0       0
       0       0       0       0       0       0       0       0       0       0
       0       0       0       0       0       0       0       0       0       0
       0       0       0       0       0       0       0       0       0       0
       0       0       0       0       0       0       0       0       0       0
       0       0       0       0       0       0       0       0       0       0
       0       0       0       0       0       0       0       0       0       0
       0       0       0       0       0       0       0       0       0       0
       0       0       0       0       0       0       0       0       0       0
       0       0       0       0       0       0       0       0       0       0
       0       0       0       0       0       0       0       0       0       0
       0       0       0       0       0       0       0       0       0       0
       0       0       0       0       0       0       0       0       0       0
       0       0       0       0       0       0       0       0       0       0
       0       0       0       0       0       0       0       0       0       0
       0       0       0       0       0       0       0       0       0       0
       0       0       0       0       0       0       0       0       0       0
       0       0       0       0       0       0       0       0       0       0
       0       0       0       0       0       0       0       0       0       0
       0       0       0       0       0       0       0       0       0       0
       0       0       0       0       0       0       0       0       0       0
       0       0       0       0       0       0       0       0       0       0
       0       0       0       0       0       0       0       0       0       0
       0       0       0       0       0       0       0       0       0       0
       0       0       0       0       0       0       0       0       0       0
       0       0       0       0       0       0       0       0       0       0
       0       0       0       0       0       0       0       0       0       0
       0       0       0       0       0       0       0       0       0       0
       0       0       0       0       0       0       0       0       0       0
       0       0       0       0       0       0       0       0       0       0
       0       0       0       0       0       0       0       0       0       0
       0       0       0       0       0       0       0       0       0       0
       0       0       0       0       0       0       0       0       0       0
       0       0       0       0       0       0       0       0       0       0
       0       0       0       0       0       0       0       0       0       0
       0       0       0       0       0       0       0       0       0       0
       0       0       0       0       0       0       0       0       0       0
       0       0       0       0       0       0       0       0       0       0
       0       0       0       0       0       0       0       0       0       0
       0       0       0       0       0       0       0       0       0       0
       0       0       0       0       0       0       0       0       0       0
       0       0       0       0       0       0       0       0       0       0
       0       0       0       0       0       0       0       0       0       0
       0       0       0       0       0       0       0       0       0       0
       0       0       0       0       0       0       0       0       0       0
       0       0       0       0       0       0       0       0       0       0
       0       0       0       0       0       0       0       0       0       0
       0       0       0       0       0       0       0       0       0       0
       0       0       0       0       0       0       0       0       0       0
       0       0       0       0       0       0       0       0       0       0
       0       0       0       0       0       0       0       0       0       0
       0       0       0       0       0       0       0       0       0       0
       0       0       0       0       0       0       0       0       0       0
       0       0       0       0       0       0       0       0       0       0
       0       0       0       0       0       0       0       0       0       0
       0       0       0       0       0       0       0       0       0       0
       0       0       0       0       0       0       0       0       0       0
       0       0       0       0       0       0       0       0       0       0
       0       0       0       0       0       0       0       0       0       0
       0       0       0       0       0       0       0       0       0       0
       0       0       0       0       0       0       0       0       0       0
       0       0       0       0       0       0       0       0       0       0
       0       0       0       0       0       0       0       0       0       0
       0       0       0       0       0       0       0       0       0       0
       0       0       0       0       0       0       0       0       0       0
       0       0       0       0       0       0       0       0       0       0
       0       0       0       0       0       0       0       0       0       0
       0       0       0       0       0       0       0       0       0       0
       0       0       0       0       0       0       0       0       0       0
       0       0       0       0       0       0       0       0       0       0
       0       0       0       0       0       0       0       0       0       0
       0       0       0       0       0       0       0       0       0       0
       0       0       0       0       0       0       0       0       0       0
       0       0       0       0       0       0       0       0       0       0
       0       0       0       0       0       0       0       0       0       0
       0       0       0       0       0       0       0       0       0       0
       0       0       0       0       0       0       0       0       0       0
       0       0       0       0       0       0       0       0       0       0
       0       0       0       0       0       0       0       0       0       0
       0       0       0       0       0       0       0       0       0       0
       0       0       0       0       0       0       0       0       0       0
       0       0       0       0       0       0       0       0       0       0
       0       0       0       0       0       0       0       0       0       0
       0       0       0       0       0       0       0       0       0       0
       0       0       0       0       0       0       0       0       0       0
       0       0       0       0       0       0       0       0       0       0
       0       0       0       0       0       0       0       0       0       0
       0       0       0       0       0       0       0       0       0       0
       0       0       0       0       0       0       0       0       0       0
       0       0       0       0       0       0       0       0       0       0
       0       0       0       0       0       0       0       0       0       0
       0       0       0       0       0       0       0       0       0       0
       0       0       0       0       0       0       0       0       0       0
       0       0       0       0       0       0       0       0       0       0
       0       0       0       0       0       0       0       0       0       0
       0       0       0       0       0       0       0       0       0       0
       0       0       0       0       0       0       0       0       0       0
       0       0       0       0       0       0       0       0       0       0
       0       0       0       0       0       0       0       0       0       0
       0       0       0       0       0       0       0       0       0       0
       0       0       0       0       0       0       0       0       0       0
       0       0       0       0       0       0       0       0       0       0
       0       0       0       0       0       0       0       0       0       0
       0       0       0       0       0       0       0       0       0       0
       0       0       0       0       0       0       0       0       0       0
       0       0       0       0       0       0       0       0       0       0
       0       0       0       0       0       0       0       0       0       0
       0       0       0       0       0       0       0       0       0       0
       0       0       0       0       0       0       0       0       0       0
       0       0       0       0       0       0       0       0       0       0
       0       0       0       0       0       0       0       0       0       0
       0       0       0       0       0       0       0       0       0       0
       0       0       0       0       0       0       0       0       0       0
       0       0       0       0       0       0       0       0       0       0
       0       0       0       0       0       0       0       0       0       0
       0       0       0       0       0       0       0       0       0       0
       0       0       0       0       0       0       0       0       0       0
       0       0       0       0       0       0       0       0       0       0
       0       0       0       0       0       0       0       0       0       0
       0       0       0       0       0       0       0       0       0       0
       0       0       0       0       0       0       0       0       0       0
       0       0       0       0       0       0       0       0       0       0
       0       0       0       0       0       0       0       0       0       0
       0       0       0       0       0       0       0       0       0       0
       0       0       0       0       0       0       0       0       0       0
       0       0       0       0       0       0       0       0       0       0
       0       0       0       0       0       0       0       0       0       0
       0       0       0       0       0       0       0       0       0       0
       0       0       0       0       0       0       0       0       0       0
       0       0       0       0       0       0       0       0       0       0
       0       0       0       0       0       0       0       0       0       0
       0       0       0       0       0       0       0       0       0       0
       0       0       0       0       0       0       0       0       0       0
       0       0       0       0       0       0       0       0       0       0
       0       0       0       0       0       0       0       0       0       0
       0       0       0       0       0       0       0       0       0       0
       0       0       0       0       0       0       0       0       0       0
       0       0       0       0       0       0       0       0       0       0
       0       0       0       0       0       0       0       0       0       0
       0       0       0       0       0       0       0       0       0       0
       0       0       0       0       0       0       0       0       0       0
       0       0       0       0       0       0       0       0       0       0
       0       0       0       0       0       0       0       0       0       0
       0       0       0       0       0       0       0       0       0       0
       0       0       0       0       0       0       0       0       0       0
       0       0       0       0       0       0       0       0       0       0
       0       0       0       0       0       0       0       0       0       0
       0       0       0       0       0       0       0       0       0       0
       0       0       0       0       0       0       0       0       0       0
       0       0       0       0       0       0       0       0       0       0
       0       0       0       0       0       0       0       0       0       0
       0       0       0       0       0       0       0       0       0       0
       0       0       0       0       0       0       0       0       0       0
       0       0       0       0       0       0       0       0       0       0
       0       0       0       0       0       0       0       0       0       0
       0       0       0       0       0       0       0       0       0       0
       0       0       0       0       0       0       0       0       0       0
       0       0       0       0       0       0       0       0       0       0
       0       0       0       0       0       0       0       0       0       0
       0       0       0       0       0       0       0       0       0       0
       0       0       0       0       0       0       0       0       0       0
       0       0       0       0       0       0       0       0       0       0
       0       0       0       0       0       0       0       0       0       0
       0       0       0       0       0       0       0       0       0       0
       0       0       0       0       0       0       0       0       0       0
       0       0       0       0       0       0       0       0       0       0
       0       0       0       0       0       0       0       0       0       0
       0       0       0       0       0       0       0       0       0       0
       0       0       0       0       0       0
%FLAG IROTAT                                                                    
%FORMAT(10I8)                                                                   
       0       0       0       0       0       0       0       0       0       0
       0       0       0       0       0       0       0       0       0       0
       0       0       0       0       0       0       0       0       0       0
       0       0       0       0       0       0       0       0       0       0
       0       0       0       0       0       0       0       0       0       0
       0       0       0       0       0       0       0       0       0       0
       0       0       0       0       0       0       0       0       0       0
       0       0       0       0       0       0       0       0       0       0
       0       0       0       0       0       0       0       0       0       0
       0       0       0       0       0       0       0       0       0       0
       0       0       0       0       0       0       0       0       0       0
       0       0       0       0       0       0       0       0       0       0
       0       0       0       0       0       0       0       0       0       0
       0       0       0       0       0       0       0       0       0       0
       0       0       0       0       0       0       0       0       0       0
       0       0       0       0       0       0       0       0       0       0
       0       0       0       0       0       0       0       0       0       0
       0       0       0       0       0       0       0       0       0       0
       0       0       0       0       0       0       0       0       0       0
       0       0       0       0       0       0       0       0       0       0
       0       0       0       0       0       0       0       0       0       0
       0       0       0       0       0       0       0       0       0       0
       0       0       0       0       0       0       0       0       0       0
       0       0       0       0       0       0       0       0       0       0
       0       0       0       0       0       0       0       0       0       0
       0       0       0       0       0       0       0       0       0       0
       0       0       0       0       0       0       0       0       0       0
       0       0       0       0       0       0       0       0       0       0
       0       0       0       0       0       0       0       0       0       0
       0       0       0       0       0       0       0       0       0       0
       0       0       0       0       0       0       0       0       0       0
       0       0       0       0       0       0       0       0       0       0
       0       0       0       0       0       0       0       0       0       0
       0       0       0       0       0       0       0       0       0       0
       0       0       0       0       0       0       0       0       0       0
       0       0       0       0       0       0       0       0       0       0
       0       0       0       0       0       0       0       0       0       0
       0       0       0       0       0       0       0       0       0       0
       0       0       0       0       0       0       0       0       0       0
       0       0       0       0       0       0       0       0       0       0
       0       0       0       0       0       0       0       0       0       0
       0       0       0       0       0       0       0       0       0       0
       0       0       0       0       0       0       0       0       0       0
       0       0       0       0       0       0       0       0       0       0
       0       0       0       0       0       0       0       0       0       0
       0       0       0       0       0       0       0       0       0       0
       0       0       0       0       0       0       0       0       0       0
       0       0       0       0       0       0       0       0       0       0
       0       0       0       0       0       0       0       0       0       0
       0       0       0       0       0       0       0       0       0       0
       0       0       0       0       0       0       0       0       0       0
       0       0       0       0       0       0       0       0       0       0
       0       0       0       0       0       0       0       0       0       0
       0       0       0       0       0       0       0       0       0       0
       0       0       0       0       0       0       0       0       0       0
       0       0       0       0       0       0       0       0       0       0
       0       0       0       0       0       0       0       0       0       0
       0       0       0       0       0       0       0       0       0       0
       0       0       0       0       0       0       0       0       0       0
       0       0       0       0       0       0       0       0       0       0
       0       0       0       0       0       0       0       0       0       0
       0       0       0       0       0       0       0       0       0       0
       0       0       0       0       0       0       0       0       0       0
       0       0       0       0       0       0       0       0       0       0
       0       0       0       0       0       0       0       0       0       0
       0       0       0       0       0       0       0       0       0       0
       0       0       0       0       0       0       0       0       0       0
       0       0       0       0       0       0       0       0       0       0
       0       0       0       0       0       0       0       0       0       0
       0       0       0       0       0       0       0       0       0       0
       0       0       0       0       0       0       0       0       0       0
       0       0       0       0       0       0       0       0       0       0
       0       0       0       0       0       0       0       0       0       0
       0       0       0       0       0       0       0       0       0       0
       0       0       0       0       0       0       0       0       0       0
       0       0       0       0       0       0       0       0       0       0
       0       0       0       0       0       0       0       0       0       0
       0       0       0       0       0       0       0       0       0       0
       0       0       0       0       0       0       0       0       0       0
       0       0       0       0       0       0       0       0       0       0
       0       0       0       0       0       0       0       0       0       0
       0       0       0       0       0       0       0       0       0       0
       0       0       0       0       0       0       0       0       0       0
       0       0       0       0       0       0       0       0       0       0
       0       0       0       0       0       0       0       0       0       0
       0       0       0       0       0       0       0       0       0       0
       0       0       0       0       0       0       0       0       0       0
       0       0       0       0       0       0       0       0       0       0
       0       0       0       0       0       0       0       0       0       0
       0       0       0       0       0       0       0       0       0       0
       0       0       0       0       0       0       0       0       0       0
       0       0       0       0       0       0       0       0       0       0
       0       0       0       0       0       0       0       0       0       0
       0       0       0       0       0       0       0       0       0       0
       0       0       0       0       0       0       0       0       0       0
       0       0       0       0       0       0       0       0       0       0
       0       0       0       0       0       0       0       0       0       0
       0       0       0       0       0       0       0       0       0       0
       0       0       0       0       0       0       0       0       0       0
       0       0       0       0       0       0       0       0       0       0
       0       0       0       0       0       0       0       0       0       0
       0       0       0       0       0       0       0       0       0       0
       0       0       0       0       0       0       0       0       0       0
       0       0       0       0       0       0       0       0       0       0
       0       0       0       0       0       0       0       0       0       0
       0       0       0       0       0       0       0       0       0       0
       0       0       0       0       0       0       0       0       0       0
       0       0       0       0       0       0       0       0       0       0
       0       0       0       0       0       0       0       0       0       0
       0       0       0       0       0       0       0       0       0       0
       0       0       0       0       0       0       0       0       0       0
       0       0       0       0       0       0       0       0       0       0
       0       0       0       0       0       0       0       0       0       0
       0       0       0       0       0       0       0       0       0       0
       0       0       0       0       0       0       0       0       0       0
       0       0       0       0       0       0       0       0       0       0
       0       0       0       0       0       0       0       0       0       0
       0       0       0       0       0       0       0       0       0       0
       0       0       0       0       0       0       0       0       0       0
       0       0       0       0       0       0       0       0       0       0
       0       0       0       0       0       0       0       0       0       0
       0       0       0       0       0       0       0       0       0       0
       0       0       0       0       0       0       0       0       0       0
       0       0       0       0       0       0       0       0       0       0
       0       0       0       0       0       0       0       0       0       0
       0       0       0       0       0       0       0       0       0       0
       0       0       0       0       0       0       0       0       0       0
       0       0       0       0       0       0       0       0       0       0
       0       0       0       0       0       0       0       0       0       0
       0       0       0       0       0       0       0       0       0       0
       0       0       0       0       0       0       0       0       0       0
       0       0       0       0       0       0       0       0       0       0
       0       0       0       0       0       0       0       0       0       0
       0       0       0       0       0       0       0       0       0       0
       0       0       0       0       0       0       0       0       0       0
       0       0       0       0       0       0       0       0       0       0
       0       0       0       0       0       0       0       0       0       0
       0       0       0       0       0       0       0       0       0       0
       0       0       0       0       0       0       0       0       0       0
       0       0       0       0       0       0       0       0       0       0
       0       0       0       0       0       0       0       0       0       0
       0       0       0       0       0       0       0       0       0       0
       0       0       0       0       0       0       0       0       0       0
       0       0       0       0       0       0       0       0       0       0
       0       0       0       0       0       0       0       0       0       0
       0       0       0       0       0       0       0       0       0       0
       0       0       0       0       0       0       0       0       0       0
       0       0       0       0       0       0       0       0       0       0
       0       0       0       0       0       0       0       0       0       0
       0       0       0       0       0       0       0       0       0       0
       0       0       0       0       0       0       0       0       0       0
       0       0       0       0       0       0       0       0       0       0
       0       0       0       0       0       0       0       0       0       0
       0       0       0       0       0       0       0       0       0       0
       0       0       0       0       0       0       0       0       0       0
       0       0       0       0       0       0       0       0       0       0
       0       0       0       0       0       0       0       0       0       0
       0       0       0       0       0       0       0       0       0       0
       0       0       0       0       0       0       0       0       0       0
       0       0       0       0       0       0       0       0       0       0
       0       0       0       0       0       0       0       0       0       0
       0       0       0       0       0       0       0       0       0       0
       0       0       0       0       0       0       0       0       0       0
       0       0       0       0       0       0       0       0       0       0
       0       0       0       0       0       0       0       0       0       0
       0       0       0       0       0       0       0       0       0       0
       0       0       0       0       0       0       0       0       0       0
       0       0       0       0       0       0       0       0       0       0
       0       0       0       0       0       0       0       0       0       0
       0       0       0       0       0       0       0       0       0       0
       0       0       0       0       0       0       0       0       0       0
       0       0       0       0       0       0       0       0       0       0
       0       0       0       0       0       0       0       0       0       0
       0       0       0       0       0       0       0       0       0       0
       0       0       0       0       0       0       0       0       0       0
       0       0       0       0       0       0       0       0       0       0
       0       0       0       0       0       0       0       0       0       0
       0       0       0       0       0       0       0       0       0       0
       0       0       0       0       0       0       0       0       0       0
       0       0       0       0       0       0       0       0       0       0
       0       0       0       0       0       0       0       0       0       0
       0       0       0       0       0       0       0       0       0       0
       0       0       0       0       0       0       0       0       0       0
       0       0       0       0       0       0       0       0       0       0
       0       0       0       0       0       0       0       0       0       0
       0       0       0       0       0       0       0       0       0       0
       0       0       0       0       0       0       0       0       0       0
       0       0       0       0       0       0       0       0       0       0
       0       0       0       0       0       0       0       0       0       0
       0       0       0       0       0       0       0       0       0       0
       0       0       0       0       0       0       0       0       0       0
       0       0       0       0       0       0       0       0       0       0
       0       0       0       0       0       0       0       0       0       0
       0       0       0       0       0       0       0       0       0       0
       0       0       0       0       0       0       0       0       0       0
       0       0       0       0       0       0       0       0       0       0
       0       0       0       0       0       0       0       0       0       0
       0       0       0       0       0       0       0       0       0       0
       0       0       0       0       0       0       0       0       0       0
       0       0       0       0       0       0       0       0       0       0
       0       0       0       0       0       0       0       0       0       0
       0       0       0       0       0       0       0       0       0       0
       0       0       0       0       0       0       0       0       0       0
       0       0       0       0       0       0       0       0       0       0
       0       0       0       0       0       0       0       0       0       0
       0       0       0       0       0       0       0       0       0       0
       0       0       0       0       0       0       0       0       0       0
       0       0       0       0       0       0       0       0       0       0
       0       0       0       0       0       0       0       0       0       0
       0       0       0       0       0       0       0       0       0       0
       0       0       0       0       0       0       0       0       0       0
       0       0       0       0       0       0       0       0       0       0
       0       0       0       0       0       0       0       0       0       0
       0       0       0       0       0       0       0       0       0       0
       0       0       0       0       0       0       0       0       0       0
       0       0       0       0       0       0       0       0       0       0
       0       0       0       0       0       0       0       0       0       0
       0       0       0       0       0       0       0       0       0       0
       0       0       0       0       0       0       0       0       0       0
       0       0       0       0       0       0       0       0       0       0
       0       0       0       0       0       0       0       0       0       0
       0       0       0       0       0       0       0       0       0       0
       0       0       0       0       0       0       0       0       0       0
       0       0       0       0       0       0       0       0       0       0
       0       0       0       0       0       0       0       0       0       0
       0       0       0       0       0       0       0       0       0       0
       0       0       0       0       0       0       0       0       0       0
       0       0       0       0       0       0       0       0       0       0
       0       0       0       0       0       0       0       0       0       0
       0       0       0       0       0       0       0       0       0       0
       0       0       0       0       0       0       0       0       0       0
       0       0       0       0       0       0       0       0       0       0
       0       0       0       0       0       0       0       0       0       0
       0       0       0       0       0       0       0       0       0       0
       0       0       0       0       0       0       0       0       0       0
       0       0       0       0       0       0       0       0       0       0
       0       0       0       0       0       0       0       0       0       0
       0       0       0       0       0       0       0       0       0       0
       0       0       0       0       0       0       0       0       0       0
       0       0       0       0       0       0       0       0       0       0
       0       0       0       0       0       0       0       0       0       0
       0       0       0       0       0       0       0       0       0       0
       0       0       0       0       0       0       0       0       0       0
       0       0       0       0       0       0       0       0       0       0
       0       0       0       0       0       0       0       0       0       0
       0       0       0       0       0       0       0       0       0       0
       0       0       0       0       0       0       0       0       0       0
       0       0       0       0       0       0       0       0       0       0
       0       0       0       0       0       0       0       0       0       0
       0       0       0       0       0       0       0       0       0       0
       0       0       0       0       0       0       0       0       0       0
       0       0       0       0       0       0       0       0       0       0
       0       0       0       0       0       0       0       0       0       0
       0       0       0       0       0       0       0       0       0       0
       0       0       0       0       0       0       0       0       0       0
       0       0       0       0       0       0       0       0       0       0
       0       0       0       0       0       0       0       0       0       0
       0       0       0       0       0       0       0       0       0       0
       0       0       0       0       0       0       0       0       0       0
       0       0       0       0       0       0       0       0       0       0
       0       0       0       0       0       0       0       0       0       0
       0       0       0       0       0       0       0       0       0       0
       0       0       0       0       0       0       0       0       0       0
       0       0       0       0       0       0       0       0       0       0
       0       0       0       0       0       0       0       0       0       0
       0       0       0       0       0       0       0       0       0       0
       0       0       0       0       0       0       0       0       0       0
       0       0       0       0       0       0       0       0       0       0
       0       0       0       0       0       0       0       0       0       0
       0       0       0       0       0       0       0       0       0       0
       0       0       0       0       0       0       0       0       0       0
       0       0       0       0       0       0       0       0       0       0
       0       0       0       0       0       0       0       0       0       0
       0       0       0       0       0       0       0       0       0       0
       0       0       0       0       0       0       0       0       0       0
       0       0       0       0       0       0       0       0       0       0
       0       0       0       0       0       0       0       0       0       0
       0       0       0       0       0       0       0       0       0       0
       0       0       0       0       0       0       0       0       0       0
       0       0       0       0       0       0       0       0       0       0
       0       0       0       0       0       0       0       0       0       0
       0       0       0       0       0       0       0       0       0       0
       0       0       0       0       0       0       0       0       0       0
       0       0       0       0       0       0       0       0       0       0
       0       0       0       0       0       0       0       0       0       0
       0       0       0       0       0       0       0       0       0       0
       0       0       0       0       0       0       0       0       0       0
       0       0       0       0       0       0       0       0       0       0
       0       0       0       0       0       0       0       0       0       0
       0       0       0       0       0       0       0       0       0       0
       0       0       0       0       0       0       0       0       0       0
       0       0       0       0       0       0       0       0       0       0
       0       0       0       0       0       0       0       0       0       0
       0       0       0       0       0       0       0       0       0       0
       0       0       0       0       0       0       0       0       0       0
       0       0       0       0       0       0       0       0       0       0
       0       0       0       0       0       0       0       0       0       0
       0       0       0       0       0       0       0       0       0       0
       0       0       0       0       0       0       0       0       0       0
       0       0       0       0       0       0       0       0       0       0
       0       0       0       0       0       0       0       0       0       0
       0       0       0       0       0       0       0       0       0       0
       0       0       0       0       0       0       0       0       0       0
       0       0       0       0       0       0       0       0       0       0
       0       0       0       0       0       0       0       0       0       0
       0       0       0       0       0       0       0       0       0       0
       0       0       0       0       0       0       0       0       0       0
       0       0       0       0       0       0       0       0       0       0
       0       0       0       0       0       0       0       0       0       0
       0       0       0       0       0       0       0       0       0       0
       0       0       0       0       0       0       0       0       0       0
       0       0       0       0       0       0       0       0       0       0
       0       0       0       0       0       0       0       0       0       0
       0       0       0       0       0       0       0       0       0       0
       0       0       0       0       0       0       0       0       0       0
       0       0       0       0       0       0       0       0       0       0
       0       0       0       0       0       0       0       0       0       0
       0       0       0       0       0       0       0       0       0       0
       0       0       0       0       0       0       0       0       0       0
       0       0       0       0       0       0       0       0       0       0
       0       0       0       0       0       0       0       0       0       0
       0       0       0       0       0       0       0       0       0       0
       0       0       0       0       0       0       0       0       0       0
       0       0       0       0       0       0       0       0       0       0
       0       0       0       0       0       0       0       0       0       0
       0       0       0       0       0       0       0       0       0       0
       0       0       0       0       0       0       0       0       0       0
       0       0       0       0       0       0       0       0       0       0
       0       0       0       0       0       0       0       0       0       0
       0       0       0       0       0       0       0       0       0       0
       0       0       0       0       0       0       0       0       0       0
       0       0       0       0       0       0       0       0       0       0
       0       0       0       0       0       0       0       0       0       0
       0       0       0       0       0       0       0       0       0       0
       0       0       0       0       0       0       0       0       0       0
       0       0       0       0       0       0       0       0       0       0
       0       0       0       0       0       0       0       0       0       0
       0       0       0       0       0       0       0       0       0       0
       0       0       0       0       0       0       0       0       0       0
       0       0       0       0       0       0       0       0       0       0
       0       0       0       0       0       0       0       0       0       0
       0       0       0       0       0       0       0       0       0       0
       0       0       0       0       0       0       0       0       0       0
       0       0       0       0       0       0
%FLAG SOLVENT_POINTERS                                                          
%FORMAT(3I8)                                                                    
     341     341     342
%FLAG ATOMS_PER_MOLECULE                                                        
%FORMAT(10I8)                                                                   
      36      10      10      10      10      10      10      10      10      10
      10      10      10      10      10      10      10      10      10      10
      10      10      10      10      10      10      10      10      10      10
      10      10      10      10      10      10      10      10      10      10
      10      10      10      10      10      10      10      10      10      10
      10      10      10      10      10      10      10      10      10      10
      10      10      10      10      10      10      10      10      10      10
      10      10      10      10      10      10      10      10      10      10
      10      10      10      10      10      10      10      10      10      10
      10      10      10      10      10      10      10      10      10      10
      10      10      10      10      10      10      10      10      10      10
      10      10      10      10      10      10      10      10      10      10
      10      10      10      10      10      10      10      10      10      10
      10      10      10      10      10      10      10      10      10      10
      10      10      10      10      10      10      10      10      10      10
      10      10      10      10      10      10      10      10      10      10
      10      10      10      10      10      10      10      10      10      10
      10      10      10      10      10      10      10      10      10      10
      10      10      10      10      10      10      10      10      10      10
      10      10      10      10      10      10      10      10      10      10
      10      10      10      10      10      10      10      10      10      10
      10      10      10      10      10      10      10      10      10      10
      10      10      10      10      10      10      10      10      10      10
      10      10      10      10      10      10      10      10      10      10
      10      10      10      10      10      10      10      10      10      10
      10      10      10      10      10      10      10      10      10      10
      10      10      10      10      10      10      10      10      10      10
      10      10      10      10      10      10      10      10      10      10
      10      10      10      10      10      10      10      10      10      10
      10      10      10      10      10      10      10      10      10      10
      10      10      10      10      10      10      10      10      10      10
      10      10      10      10      10      10      10      10      10      10
      10      10      10      10      10      10      10      10      10      10
      10      10      10      10      10      10      10      10      10      10
      10
%FLAG BOX_DIMENSIONS                                                            
%FORMAT(5E16.8)                                                                 
  9.00000000E+01  3.48000000E+01  3.48000000E+01  3.48000000E+01
%FLAG RADIUS_SET                                                                
%FORMAT(1a80)                                                                   
modified Bondi radii (mbondi)                                                   
%FLAG RADII                                                                     
%FORMAT(5E16.8)                                                                 
  1.50000000E+00  1.50000000E+00  1.55000000E+00  1.55000000E+00  1.70000000E+00
  1.70000000E+00  1.70000000E+00  1.70000000E+00  1.70000000E+00  1.70000000E+00
  1.70000000E+00  1.70000000E+00  1.70000000E+00  1.70000000E+00  1.70000000E+00
  1.70000000E+00  1.70000000E+00  1.70000000E+00  1.70000000E+00  1.70000000E+00
  1.70000000E+00  1.70000000E+00  1.70000000E+00  1.70000000E+00  1.30000000E+00
  1.30000000E+00  1.30000000E+00  1.30000000E+00  1.30000000E+00  1.30000000E+00
  1.30000000E+00  1.30000000E+00  1.30000000E+00  1.30000000E+00  1.30000000E+00
  1.30000000E+00  1.80000000E+00  1.50000000E+00  1.70000000E+00  1.70000000E+00
  1.30000000E+00  1.30000000E+00  1.30000000E+00  1.30000000E+00  1.30000000E+00
  1.30000000E+00  1.80000000E+00  1.50000000E+00  1.70000000E+00  1.70000000E+00
  1.30000000E+00  1.30000000E+00  1.30000000E+00  1.30000000E+00  1.30000000E+00
  1.30000000E+00  1.80000000E+00  1.50000000E+00  1.70000000E+00  1.70000000E+00
  1.30000000E+00  1.30000000E+00  1.30000000E+00  1.30000000E+00  1.30000000E+00
  1.30000000E+00  1.80000000E+00  1.50000000E+00  1.70000000E+00  1.70000000E+00
  1.30000000E+00  1.30000000E+00  1.30000000E+00  1.30000000E+00  1.30000000E+00
  1.30000000E+00  1.80000000E+00  1.50000000E+00  1.70000000E+00  1.70000000E+00
  1.30000000E+00  1.30000000E+00  1.30000000E+00  1.30000000E+00  1.30000000E+00
  1.30000000E+00  1.80000000E+00  1.50000000E+00  1.70000000E+00  1.70000000E+00
  1.30000000E+00  1.30000000E+00  1.30000000E+00  1.30000000E+00  1.30000000E+00
  1.30000000E+00  1.80000000E+00  1.50000000E+00  1.70000000E+00  1.70000000E+00
  1.30000000E+00  1.30000000E+00  1.30000000E+00  1.30000000E+00  1.30000000E+00
  1.30000000E+00  1.80000000E+00  1.50000000E+00  1.70000000E+00  1.70000000E+00
  1.30000000E+00  1.30000000E+00  1.30000000E+00  1.30000000E+00  1.30000000E+00
  1.30000000E+00  1.80000000E+00  1.50000000E+00  1.70000000E+00  1.70000000E+00
  1.30000000E+00  1.30000000E+00  1.30000000E+00  1.30000000E+00  1.30000000E+00
  1.30000000E+00  1.80000000E+00  1.50000000E+00  1.70000000E+00  1.70000000E+00
  1.30000000E+00  1.30000000E+00  1.30000000E+00  1.30000000E+00  1.30000000E+00
  1.30000000E+00  1.80000000E+00  1.50000000E+00  1.70000000E+00  1.70000000E+00
  1.30000000E+00  1.30000000E+00  1.30000000E+00  1.30000000E+00  1.30000000E+00
  1.30000000E+00  1.80000000E+00  1.50000000E+00  1.70000000E+00  1.70000000E+00
  1.30000000E+00  1.30000000E+00  1.30000000E+00  1.30000000E+00  1.30000000E+00
  1.30000000E+00  1.80000000E+00  1.50000000E+00  1.70000000E+00  1.70000000E+00
  1.30000000E+00  1.30000000E+00  1.30000000E+00  1.30000000E+00  1.30000000E+00
  1.30000000E+00  1.80000000E+00  1.50000000E+00  1.70000000E+00  1.70000000E+00
  1.30000000E+00  1.30000000E+00  1.30000000E+00  1.30000000E+00  1.30000000E+00
  1.30000000E+00  1.80000000E+00  1.50000000E+00  1.70000000E+00  1.70000000E+00
  1.30000000E+00  1.30000000E+00  1.30000000E+00  1.30000000E+00  1.30000000E+00
  1.30000000E+00  1.80000000E+00  1.50000000E+00  1.70000000E+00  1.70000000E+00
  1.30000000E+00  1.30000000E+00  1.30000000E+00  1.30000000E+00  1.30000000E+00
  1.30000000E+00  1.80000000E+00  1.50000000E+00  1.70000000E+00  1.70000000E+00
  1.30000000E+00  1.30000000E+00  1.30000000E+00  1.30000000E+00  1.30000000E+00
  1.30000000E+00  1.80000000E+00  1.50000000E+00  1.70000000E+00  1.70000000E+00
  1.30000000E+00  1.30000000E+00  1.30000000E+00  1.30000000E+00  1.30000000E+00
  1.30000000E+00  1.80000000E+00  1.50000000E+00  1.70000000E+00  1.70000000E+00
  1.30000000E+00  1.30000000E+00  1.30000000E+00  1.30000000E+00  1.30000000E+00
  1.30000000E+00  1.80000000E+00  1.50000000E+00  1.70000000E+00  1.70000000E+00
  1.30000000E+00  1.30000000E+00  1.30000000E+00  1.30000000E+00  1.30000000E+00
  1.30000000E+00  1.80000000E+00  1.50000000E+00  1.70000000E+00  1.70000000E+00
  1.30000000E+00  1.30000000E+00  1.30000000E+00  1.30000000E+00  1.30000000E+00
  1.30000000E+00  1.80000000E+00  1.50000000E+00  1.70000000E+00  1.70000000E+00
  1.30000000E+00  1.30000000E+00  1.30000000E+00  1.30000000E+00  1.30000000E+00
  1.30000000E+00  1.80000000E+00  1.50000000E+00  1.70000000E+00  1.70000000E+00
  1.30000000E+00  1.30000000E+00  1.30000000E+00  1.30000000E+00  1.30000000E+00
  1.30000000E+00  1.80000000E+00  1.50000000E+00  1.70000000E+00  1.70000000E+00
  1.30000000E+00  1.30000000E+00  1.30000000E+00  1.30000000E+00  1.30000000E+00
  1.30000000E+00  1.80000000E+00  1.50000000E+00  1.70000000E+00  1.70000000E+00
  1.30000000E+00  1.30000000E+00  1.30000000E+00  1.30000000E+00  1.30000000E+00
  1.30000000E+00  1.80000000E+00  1.50000000E+00  1.70000000E+00  1.70000000E+00
  1.30000000E+00  1.30000000E+00  1.30000000E+00  1.30000000E+00  1.30000000E+00
  1.30000000E+00  1.80000000E+00  1.50000000E+00  1.70000000E+00  1.70000000E+00
  1.30000000E+00  1.30000000E+00  1.30000000E+00  1.30000000E+00  1.30000000E+00
  1.30000000E+00  1.80000000E+00  1.50000000E+00  1.70000000E+00  1.70000000E+00
  1.30000000E+00  1.30000000E+00  1.30000000E+00  1.30000000E+00  1.30000000E+00
  1.30000000E+00  1.80000000E+00  1.50000000E+00  1.70000000E+00  1.70000000E+00
  1.30000000E+00  1.30000000E+00  1.30000000E+00  1.30000000E+00  1.30000000E+00
  1.30000000E+00  1.80000000E+00  1.50000000E+00  1.70000000E+00  1.70000000E+00
  1.30000000E+00  1.30000000E+00  1.30000000E+00  1.30000000E+00  1.30000000E+00
  1.30000000E+00  1.80000000E+00  1.50000000E+00  1.70000000E+00  1.70000000E+00
  1.30000000E+00  1.30000000E+00  1.30000000E+00  1.30000000E+00  1.30000000E+00
  1.30000000E+00  1.80000000E+00  1.50000000E+00  1.70000000E+00  1.70000000E+00
  1.30000000E+00  1.30000000E+00  1.30000000E+00  1.30000000E+00  1.30000000E+00
  1.30000000E+00  1.80000000E+00  1.50000000E+00  1.70000000E+00  1.70000000E+00
  1.30000000E+00  1.30000000E+00  1.30000000E+00  1.30000000E+00  1.30000000E+00
  1.30000000E+00  1.80000000E+00  1.50000000E+00  1.70000000E+00  1.70000000E+00
  1.30000000E+00  1.30000000E+00  1.30000000E+00  1.30000000E+00  1.30000000E+00
  1.30000000E+00  1.80000000E+00  1.50000000E+00  1.70000000E+00  1.70000000E+00
  1.30000000E+00  1.30000000E+00  1.30000000E+00  1.30000000E+00  1.30000000E+00
  1.30000000E+00  1.80000000E+00  1.50000000E+00  1.70000000E+00  1.70000000E+00
  1.30000000E+00  1.30000000E+00  1.30000000E+00  1.30000000E+00  1.30000000E+00
  1.30000000E+00  1.80000000E+00  1.50000000E+00  1.70000000E+00  1.70000000E+00
  1.30000000E+00  1.30000000E+00  1.30000000E+00  1.30000000E+00  1.30000000E+00
  1.30000000E+00  1.80000000E+00  1.50000000E+00  1.70000000E+00  1.70000000E+00
  1.30000000E+00  1.30000000E+00  1.30000000E+00  1.30000000E+00  1.30000000E+00
  1.30000000E+00  1.80000000E+00  1.50000000E+00  1.70000000E+00  1.70000000E+00
  1.30000000E+00  1.30000000E+00  1.30000000E+00  1.30000000E+00  1.30000000E+00
  1.30000000E+00  1.80000000E+00  1.50000000E+00  1.70000000E+00  1.70000000E+00
  1.30000000E+00  1.30000000E+00  1.30000000E+00  1.30000000E+00  1.30000000E+00
  1.30000000E+00  1.80000000E+00  1.50000000E+00  1.70000000E+00  1.70000000E+00
  1.30000000E+00  1.30000000E+00  1.30000000E+00  1.30000000E+00  1.30000000E+00
  1.30000000E+00  1.80000000E+00  1.50000000E+00  1.70000000E+00  1.70000000E+00
  1.30000000E+00  1.30000000E+00  1.30000000E+00  1.30000000E+00  1.30000000E+00
  1.30000000E+00  1.80000000E+00  1.50000000E+00  1.70000000E+00  1.70000000E+00
  1.30000000E+00  1.30000000E+00  1.30000000E+00  1.30000000E+00  1.30000000E+00
  1.30000000E+00  1.80000000E+00  1.50000000E+00  1.70000000E+00  1.70000000E+00
  1.30000000E+00  1.30000000E+00  1.30000000E+00  1.30000000E+00  1.30000000E+00
  1.30000000E+00  1.80000000E+00  1.50000000E+00  1.70000000E+00  1.70000000E+00
  1.30000000E+00  1.30000000E+00  1.30000000E+00  1.30000000E+00  1.30000000E+00
  1.30000000E+00  1.80000000E+00  1.50000000E+00  1.70000000E+00  1.70000000E+00
  1.30000000E+00  1.30000000E+00  1.30000000E+00  1.30000000E+00  1.30000000E+00
  1.30000000E+00  1.80000000E+00  1.50000000E+00  1.70000000E+00  1.70000000E+00
  1.30000000E+00  1.30000000E+00  1.30000000E+00  1.30000000E+00  1.30000000E+00
  1.30000000E+00  1.80000000E+00  1.50000000E+00  1.70000000E+00  1.70000000E+00
  1.30000000E+00  1.30000000E+00  1.30000000E+00  1.30000000E+00  1.30000000E+00
  1.30000000E+00  1.80000000E+00  1.50000000E+00  1.70000000E+00  1.70000000E+00
  1.30000000E+00  1.30000000E+00  1.30000000E+00  1.30000000E+00  1.30000000E+00
  1.30000000E+00  1.80000000E+00  1.50000000E+00  1.70000000E+00  1.70000000E+00
  1.30000000E+00  1.30000000E+00  1.30000000E+00  1.30000000E+00  1.30000000E+00
  1.30000000E+00  1.80000000E+00  1.50000000E+00  1.70000000E+00  1.70000000E+00
  1.30000000E+00  1.30000000E+00  1.30000000E+00  1.30000000E+00  1.30000000E+00
  1.30000000E+00  1.80000000E+00  1.50000000E+00  1.70000000E+00  1.70000000E+00
  1.30000000E+00  1.30000000E+00  1.30000000E+00  1.30000000E+00  1.30000000E+00
  1.30000000E+00  1.80000000E+00  1.50000000E+00  1.70000000E+00  1.70000000E+00
  1.30000000E+00  1.30000000E+00  1.30000000E+00  1.30000000E+00  1.30000000E+00
  1.30000000E+00  1.80000000E+00  1.50000000E+00  1.70000000E+00  1.70000000E+00
  1.30000000E+00  1.30000000E+00  1.30000000E+00  1.30000000E+00  1.30000000E+00
  1.30000000E+00  1.80000000E+00  1.50000000E+00  1.70000000E+00  1.70000000E+00
  1.30000000E+00  1.30000000E+00  1.30000000E+00  1.30000000E+00  1.30000000E+00
  1.30000000E+00  1.80000000E+00  1.50000000E+00  1.70000000E+00  1.70000000E+00
  1.30000000E+00  1.30000000E+00  1.30000000E+00  1.30000000E+00  1.30000000E+00
  1.30000000E+00  1.80000000E+00  1.50000000E+00  1.70000000E+00  1.70000000E+00
  1.30000000E+00  1.30000000E+00  1.30000000E+00  1.30000000E+00  1.30000000E+00
  1.30000000E+00  1.80000000E+00  1.50000000E+00  1.70000000E+00  1.70000000E+00
  1.30000000E+00  1.30000000E+00  1.30000000E+00  1.30000000E+00  1.30000000E+00
  1.30000000E+00  1.80000000E+00  1.50000000E+00  1.70000000E+00  1.70000000E+00
  1.30000000E+00  1.30000000E+00  1.30000000E+00  1.30000000E+00  1.30000000E+00
  1.30000000E+00  1.80000000E+00  1.50000000E+00  1.70000000E+00  1.70000000E+00
  1.30000000E+00  1.30000000E+00  1.30000000E+00  1.30000000E+00  1.30000000E+00
  1.30000000E+00  1.80000000E+00  1.50000000E+00  1.70000000E+00  1.70000000E+00
  1.30000000E+00  1.30000000E+00  1.30000000E+00  1.30000000E+00  1.30000000E+00
  1.30000000E+00  1.80000000E+00  1.50000000E+00  1.70000000E+00  1.70000000E+00
  1.30000000E+00  1.30000000E+00  1.30000000E+00  1.30000000E+00  1.30000000E+00
  1.30000000E+00  1.80000000E+00  1.50000000E+00  1.70000000E+00  1.70000000E+00
  1.30000000E+00  1.30000000E+00  1.30000000E+00  1.30000000E+00  1.30000000E+00
  1.30000000E+00  1.80000000E+00  1.50000000E+00  1.70000000E+00  1.70000000E+00
  1.30000000E+00  1.30000000E+00  1.30000000E+00  1.30000000E+00  1.30000000E+00
  1.30000000E+00  1.80000000E+00  1.50000000E+00  1.70000000E+00  1.70000000E+00
  1.30000000E+00  1.30000000E+00  1.30000000E+00  1.30000000E+00  1.30000000E+00
  1.30000000E+00  1.80000000E+00  1.50000000E+00  1.70000000E+00  1.70000000E+00
  1.30000000E+00  1.30000000E+00  1.30000000E+00  1.30000000E+00  1.30000000E+00
  1.30000000E+00  1.80000000E+00  1.50000000E+00  1.70000000E+00  1.70000000E+00
  1.30000000E+00  1.30000000E+00  1.30000000E+00  1.30000000E+00  1.30000000E+00
  1.30000000E+00  1.80000000E+00  1.50000000E+00  1.70000000E+00  1.70000000E+00
  1.30000000E+00  1.30000000E+00  1.30000000E+00  1.30000000E+00  1.30000000E+00
  1.30000000E+00  1.80000000E+00  1.50000000E+00  1.70000000E+00  1.70000000E+00
  1.30000000E+00  1.30000000E+00  1.30000000E+00  1.30000000E+00  1.30000000E+00
  1.30000000E+00  1.80000000E+00  1.50000000E+00  1.70000000E+00  1.70000000E+00
  1.30000000E+00  1.30000000E+00  1.30000000E+00  1.30000000E+00  1.30000000E+00
  1.30000000E+00  1.80000000E+00  1.50000000E+00  1.70000000E+00  1.70000000E+00
  1.30000000E+00  1.30000000E+00  1.30000000E+00  1.30000000E+00  1.30000000E+00
  1.30000000E+00  1.80000000E+00  1.50000000E+00  1.70000000E+00  1.70000000E+00
  1.30000000E+00  1.30000000E+00  1.30000000E+00  1.30000000E+00  1.30000000E+00
  1.30000000E+00  1.80000000E+00  1.50000000E+00  1.70000000E+00  1.70000000E+00
  1.30000000E+00  1.30000000E+00  1.30000000E+00  1.30000000E+00  1.30000000E+00
  1.30000000E+00  1.80000000E+00  1.50000000E+00  1.70000000E+00  1.70000000E+00
  1.30000000E+00  1.30000000E+00  1.30000000E+00  1.30000000E+00  1.30000000E+00
  1.30000000E+00  1.80000000E+00  1.50000000E+00  1.70000000E+00  1.70000000E+00
  1.30000000E+00  1.30000000E+00  1.30000000E+00  1.30000000E+00  1.30000000E+00
  1.30000000E+00  1.80000000E+00  1.50000000E+00  1.70000000E+00  1.70000000E+00
  1.30000000E+00  1.30000000E+00  1.30000000E+00  1.30000000E+00  1.30000000E+00
  1.30000000E+00  1.80000000E+00  1.50000000E+00  1.70000000E+00  1.70000000E+00
  1.30000000E+00  1.30000000E+00  1.30000000E+00  1.30000000E+00  1.30000000E+00
  1.30000000E+00  1.80000000E+00  1.50000000E+00  1.70000000E+00  1.70000000E+00
  1.30000000E+00  1.30000000E+00  1.30000000E+00  1.30000000E+00  1.30000000E+00
  1.30000000E+00  1.80000000E+00  1.50000000E+00  1.70000000E+00  1.70000000E+00
  1.30000000E+00  1.30000000E+00  1.30000000E+00  1.30000000E+00  1.30000000E+00
  1.30000000E+00  1.80000000E+00  1.50000000E+00  1.70000000E+00  1.70000000E+00
  1.30000000E+00  1.30000000E+00  1.30000000E+00  1.30000000E+00  1.30000000E+00
  1.30000000E+00  1.80000000E+00  1.50000000E+00  1.70000000E+00  1.70000000E+00
  1.30000000E+00  1.30000000E+00  1.30000000E+00  1.30000000E+00  1.30000000E+00
  1.30000000E+00  1.80000000E+00  1.50000000E+00  1.70000000E+00  1.70000000E+00
  1.30000000E+00  1.30000000E+00  1.30000000E+00  1.30000000E+00  1.30000000E+00
  1.30000000E+00  1.80000000E+00  1.50000000E+00  1.70000000E+00  1.70000000E+00
  1.30000000E+00  1.30000000E+00  1.30000000E+00  1.30000000E+00  1.30000000E+00
  1.30000000E+00  1.80000000E+00  1.50000000E+00  1.70000000E+00  1.70000000E+00
  1.30000000E+00  1.30000000E+00  1.30000000E+00  1.30000000E+00  1.30000000E+00
  1.30000000E+00  1.80000000E+00  1.50000000E+00  1.70000000E+00  1.70000000E+00
  1.30000000E+00  1.30000000E+00  1.30000000E+00  1.30000000E+00  1.30000000E+00
  1.30000000E+00  1.80000000E+00  1.50000000E+00  1.70000000E+00  1.70000000E+00
  1.30000000E+00  1.30000000E+00  1.30000000E+00  1.30000000E+00  1.30000000E+00
  1.30000000E+00  1.80000000E+00  1.50000000E+00  1.70000000E+00  1.70000000E+00
  1.30000000E+00  1.30000000E+00  1.30000000E+00  1.30000000E+00  1.30000000E+00
  1.30000000E+00  1.80000000E+00  1.50000000E+00  1.70000000E+00  1.70000000E+00
  1.30000000E+00  1.30000000E+00  1.30000000E+00  1.30000000E+00  1.30000000E+00
  1.30000000E+00  1.80000000E+00  1.50000000E+00  1.70000000E+00  1.70000000E+00
  1.30000000E+00  1.30000000E+00  1.30000000E+00  1.30000000E+00  1.30000000E+00
  1.30000000E+00  1.80000000E+00  1.50000000E+00  1.70000000E+00  1.70000000E+00
  1.30000000E+00  1.30000000E+00  1.30000000E+00  1.30000000E+00  1.30000000E+00
  1.30000000E+00  1.80000000E+00  1.50000000E+00  1.70000000E+00  1.70000000E+00
  1.30000000E+00  1.30000000E+00  1.30000000E+00  1.30000000E+00  1.30000000E+00
  1.30000000E+00  1.80000000E+00  1.50000000E+00  1.70000000E+00  1.70000000E+00
  1.30000000E+00  1.30000000E+00  1.30000000E+00  1.30000000E+00  1.30000000E+00
  1.30000000E+00  1.80000000E+00  1.50000000E+00  1.70000000E+00  1.70000000E+00
  1.30000000E+00  1.30000000E+00  1.30000000E+00  1.30000000E+00  1.30000000E+00
  1.30000000E+00  1.80000000E+00  1.50000000E+00  1.70000000E+00  1.70000000E+00
  1.30000000E+00  1.30000000E+00  1.30000000E+00  1.30000000E+00  1.30000000E+00
  1.30000000E+00  1.80000000E+00  1.50000000E+00  1.70000000E+00  1.70000000E+00
  1.30000000E+00  1.30000000E+00  1.30000000E+00  1.30000000E+00  1.30000000E+00
  1.30000000E+00  1.80000000E+00  1.50000000E+00  1.70000000E+00  1.70000000E+00
  1.30000000E+00  1.30000000E+00  1.30000000E+00  1.30000000E+00  1.30000000E+00
  1.30000000E+00  1.80000000E+00  1.50000000E+00  1.70000000E+00  1.70000000E+00
  1.30000000E+00  1.30000000E+00  1.30000000E+00  1.30000000E+00  1.30000000E+00
  1.30000000E+00  1.80000000E+00  1.50000000E+00  1.70000000E+00  1.70000000E+00
  1.30000000E+00  1.30000000E+00  1.30000000E+00  1.30000000E+00  1.30000000E+00
  1.30000000E+00  1.80000000E+00  1.50000000E+00  1.70000000E+00  1.70000000E+00
  1.30000000E+00  1.30000000E+00  1.30000000E+00  1.30000000E+00  1.30000000E+00
  1.30000000E+00  1.80000000E+00  1.50000000E+00  1.70000000E+00  1.70000000E+00
  1.30000000E+00  1.30000000E+00  1.30000000E+00  1.30000000E+00  1.30000000E+00
  1.30000000E+00  1.80000000E+00  1.50000000E+00  1.70000000E+00  1.70000000E+00
  1.30000000E+00  1.30000000E+00  1.30000000E+00  1.30000000E+00  1.30000000E+00
  1.30000000E+00  1.80000000E+00  1.50000000E+00  1.70000000E+00  1.70000000E+00
  1.30000000E+00  1.30000000E+00  1.30000000E+00  1.30000000E+00  1.30000000E+00
  1.30000000E+00  1.80000000E+00  1.50000000E+00  1.70000000E+00  1.70000000E+00
  1.30000000E+00  1.30000000E+00  1.30000000E+00  1.30000000E+00  1.30000000E+00
  1.30000000E+00  1.80000000E+00  1.50000000E+00  1.70000000E+00  1.70000000E+00
  1.30000000E+00  1.30000000E+00  1.30000000E+00  1.30000000E+00  1.30000000E+00
  1.30000000E+00  1.80000000E+00  1.50000000E+00  1.70000000E+00  1.70000000E+00
  1.30000000E+00  1.30000000E+00  1.30000000E+00  1.30000000E+00  1.30000000E+00
  1.30000000E+00  1.80000000E+00  1.50000000E+00  1.70000000E+00  1.70000000E+00
  1.30000000E+00  1.30000000E+00  1.30000000E+00  1.30000000E+00  1.30000000E+00
  1.30000000E+00  1.80000000E+00  1.50000000E+00  1.70000000E+00  1.70000000E+00
  1.30000000E+00  1.30000000E+00  1.30000000E+00  1.30000000E+00  1.30000000E+00
  1.30000000E+00  1.80000000E+00  1.50000000E+00  1.70000000E+00  1.70000000E+00
  1.30000000E+00  1.30000000E+00  1.30000000E+00  1.30000000E+00  1.30000000E+00
  1.30000000E+00  1.80000000E+00  1.50000000E+00  1.70000000E+00  1.70000000E+00
  1.30000000E+00  1.30000000E+00  1.30000000E+00  1.30000000E+00  1.30000000E+00
  1.30000000E+00  1.80000000E+00  1.50000000E+00  1.70000000E+00  1.70000000E+00
  1.30000000E+00  1.30000000E+00  1.30000000E+00  1.30000000E+00  1.30000000E+00
  1.30000000E+00  1.80000000E+00  1.50000000E+00  1.70000000E+00  1.70000000E+00
  1.30000000E+00  1.30000000E+00  1.30000000E+00  1.30000000E+00  1.30000000E+00
  1.30000000E+00  1.80000000E+00  1.50000000E+00  1.70000000E+00  1.70000000E+00
  1.30000000E+00  1.30000000E+00  1.30000000E+00  1.30000000E+00  1.30000000E+00
  1.30000000E+00  1.80000000E+00  1.50000000E+00  1.70000000E+00  1.70000000E+00
  1.30000000E+00  1.30000000E+00  1.30000000E+00  1.30000000E+00  1.30000000E+00
  1.30000000E+00  1.80000000E+00  1.50000000E+00  1.70000000E+00  1.70000000E+00
  1.30000000E+00  1.30000000E+00  1.30000000E+00  1.30000000E+00  1.30000000E+00
  1.30000000E+00  1.80000000E+00  1.50000000E+00  1.70000000E+00  1.70000000E+00
  1.30000000E+00  1.30000000E+00  1.30000000E+00  1.30000000E+00  1.30000000E+00
  1.30000000E+00  1.80000000E+00  1.50000000E+00  1.70000000E+00  1.70000000E+00
  1.30000000E+00  1.30000000E+00  1.30000000E+00  1.30000000E+00  1.30000000E+00
  1.30000000E+00  1.80000000E+00  1.50000000E+00  1.70000000E+00  1.70000000E+00
  1.30000000E+00  1.30000000E+00  1.30000000E+00  1.30000000E+00  1.30000000E+00
  1.30000000E+00  1.80000000E+00  1.50000000E+00  1.70000000E+00  1.70000000E+00
  1.30000000E+00  1.30000000E+00  1.30000000E+00  1.30000000E+00  1.30000000E+00
  1.30000000E+00  1.80000000E+00  1.50000000E+00  1.70000000E+00  1.70000000E+00
  1.30000000E+00  1.30000000E+00  1.30000000E+00  1.30000000E+00  1.30000000E+00
  1.30000000E+00  1.80000000E+00  1.50000000E+00  1.70000000E+00  1.70000000E+00
  1.30000000E+00  1.30000000E+00  1.30000000E+00  1.30000000E+00  1.30000000E+00
  1.30000000E+00  1.80000000E+00  1.50000000E+00  1.70000000E+00  1.70000000E+00
  1.30000000E+00  1.30000000E+00  1.30000000E+00  1.30000000E+00  1.30000000E+00
  1.30000000E+00  1.80000000E+00  1.50000000E+00  1.70000000E+00  1.70000000E+00
  1.30000000E+00  1.30000000E+00  1.30000000E+00  1.30000000E+00  1.30000000E+00
  1.30000000E+00  1.80000000E+00  1.50000000E+00  1.70000000E+00  1.70000000E+00
  1.30000000E+00  1.30000000E+00  1.30000000E+00  1.30000000E+00  1.30000000E+00
  1.30000000E+00  1.80000000E+00  1.50000000E+00  1.70000000E+00  1.70000000E+00
  1.30000000E+00  1.30000000E+00  1.30000000E+00  1.30000000E+00  1.30000000E+00
  1.30000000E+00  1.80000000E+00  1.50000000E+00  1.70000000E+00  1.70000000E+00
  1.30000000E+00  1.30000000E+00  1.30000000E+00  1.30000000E+00  1.30000000E+00
  1.30000000E+00  1.80000000E+00  1.50000000E+00  1.70000000E+00  1.70000000E+00
  1.30000000E+00  1.30000000E+00  1.30000000E+00  1.30000000E+00  1.30000000E+00
  1.30000000E+00  1.80000000E+00  1.50000000E+00  1.70000000E+00  1.70000000E+00
  1.30000000E+00  1.30000000E+00  1.30000000E+00  1.30000000E+00  1.30000000E+00
  1.30000000E+00  1.80000000E+00  1.50000000E+00  1.70000000E+00  1.70000000E+00
  1.30000000E+00  1.30000000E+00  1.30000000E+00  1.30000000E+00  1.30000000E+00
  1.30000000E+00  1.80000000E+00  1.50000000E+00  1.70000000E+00  1.70000000E+00
  1.30000000E+00  1.30000000E+00  1.30000000E+00  1.30000000E+00  1.30000000E+00
  1.30000000E+00  1.80000000E+00  1.50000000E+00  1.70000000E+00  1.70000000E+00
  1.30000000E+00  1.30000000E+00  1.30000000E+00  1.30000000E+00  1.30000000E+00
  1.30000000E+00  1.80000000E+00  1.50000000E+00  1.70000000E+00  1.70000000E+00
  1.30000000E+00  1.30000000E+00  1.30000000E+00  1.30000000E+00  1.30000000E+00
  1.30000000E+00  1.80000000E+00  1.50000000E+00  1.70000000E+00  1.70000000E+00
  1.30000000E+00  1.30000000E+00  1.30000000E+00  1.30000000E+00  1.30000000E+00
  1.30000000E+00  1.80000000E+00  1.50000000E+00  1.70000000E+00  1.70000000E+00
  1.30000000E+00  1.30000000E+00  1.30000000E+00  1.30000000E+00  1.30000000E+00
  1.30000000E+00  1.80000000E+00  1.50000000E+00  1.70000000E+00  1.70000000E+00
  1.30000000E+00  1.30000000E+00  1.30000000E+00  1.30000000E+00  1.30000000E+00
  1.30000000E+00  1.80000000E+00  1.50000000E+00  1.70000000E+00  1.70000000E+00
  1.30000000E+00  1.30000000E+00  1.30000000E+00  1.30000000E+00  1.30000000E+00
  1.30000000E+00  1.80000000E+00  1.50000000E+00  1.70000000E+00  1.70000000E+00
  1.30000000E+00  1.30000000E+00  1.30000000E+00  1.30000000E+00  1.30000000E+00
  1.30000000E+00  1.80000000E+00  1.50000000E+00  1.70000000E+00  1.70000000E+00
  1.30000000E+00  1.30000000E+00  1.30000000E+00  1.30000000E+00  1.30000000E+00
  1.30000000E+00  1.80000000E+00  1.50000000E+00  1.70000000E+00  1.70000000E+00
  1.30000000E+00  1.30000000E+00  1.30000000E+00  1.30000000E+00  1.30000000E+00
  1.30000000E+00  1.80000000E+00  1.50000000E+00  1.70000000E+00  1.70000000E+00
  1.30000000E+00  1.30000000E+00  1.30000000E+00  1.30000000E+00  1.30000000E+00
  1.30000000E+00  1.80000000E+00  1.50000000E+00  1.70000000E+00  1.70000000E+00
  1.30000000E+00  1.30000000E+00  1.30000000E+00  1.30000000E+00  1.30000000E+00
  1.30000000E+00  1.80000000E+00  1.50000000E+00  1.70000000E+00  1.70000000E+00
  1.30000000E+00  1.30000000E+00  1.30000000E+00  1.30000000E+00  1.30000000E+00
  1.30000000E+00  1.80000000E+00  1.50000000E+00  1.70000000E+00  1.70000000E+00
  1.30000000E+00  1.30000000E+00  1.30000000E+00  1.30000000E+00  1.30000000E+00
  1.30000000E+00  1.80000000E+00  1.50000000E+00  1.70000000E+00  1.70000000E+00
  1.30000000E+00  1.30000000E+00  1.30000000E+00  1.30000000E+00  1.30000000E+00
  1.30000000E+00  1.80000000E+00  1.50000000E+00  1.70000000E+00  1.70000000E+00
  1.30000000E+00  1.30000000E+00  1.30000000E+00  1.30000000E+00  1.30000000E+00
  1.30000000E+00  1.80000000E+00  1.50000000E+00  1.70000000E+00  1.70000000E+00
  1.30000000E+00  1.30000000E+00  1.30000000E+00  1.30000000E+00  1.30000000E+00
  1.30000000E+00  1.80000000E+00  1.50000000E+00  1.70000000E+00  1.70000000E+00
  1.30000000E+00  1.30000000E+00  1.30000000E+00  1.30000000E+00  1.30000000E+00
  1.30000000E+00  1.80000000E+00  1.50000000E+00  1.70000000E+00  1.70000000E+00
  1.30000000E+00  1.30000000E+00  1.30000000E+00  1.30000000E+00  1.30000000E+00
  1.30000000E+00  1.80000000E+00  1.50000000E+00  1.70000000E+00  1.70000000E+00
  1.30000000E+00  1.30000000E+00  1.30000000E+00  1.30000000E+00  1.30000000E+00
  1.30000000E+00  1.80000000E+00  1.50000000E+00  1.70000000E+00  1.70000000E+00
  1.30000000E+00  1.30000000E+00  1.30000000E+00  1.30000000E+00  1.30000000E+00
  1.30000000E+00  1.80000000E+00  1.50000000E+00  1.70000000E+00  1.70000000E+00
  1.30000000E+00  1.30000000E+00  1.30000000E+00  1.30000000E+00  1.30000000E+00
  1.30000000E+00  1.80000000E+00  1.50000000E+00  1.70000000E+00  1.70000000E+00
  1.30000000E+00  1.30000000E+00  1.30000000E+00  1.30000000E+00  1.30000000E+00
  1.30000000E+00  1.80000000E+00  1.50000000E+00  1.70000000E+00  1.70000000E+00
  1.30000000E+00  1.30000000E+00  1.30000000E+00  1.30000000E+00  1.30000000E+00
  1.30000000E+00  1.80000000E+00  1.50000000E+00  1.70000000E+00  1.70000000E+00
  1.30000000E+00  1.30000000E+00  1.30000000E+00  1.30000000E+00  1.30000000E+00
  1.30000000E+00  1.80000000E+00  1.50000000E+00  1.70000000E+00  1.70000000E+00
  1.30000000E+00  1.30000000E+00  1.30000000E+00  1.30000000E+00  1.30000000E+00
  1.30000000E+00  1.80000000E+00  1.50000000E+00  1.70000000E+00  1.70000000E+00
  1.30000000E+00  1.30000000E+00  1.30000000E+00  1.30000000E+00  1.30000000E+00
  1.30000000E+00  1.80000000E+00  1.50000000E+00  1.70000000E+00  1.70000000E+00
  1.30000000E+00  1.30000000E+00  1.30000000E+00  1.30000000E+00  1.30000000E+00
  1.30000000E+00  1.80000000E+00  1.50000000E+00  1.70000000E+00  1.70000000E+00
  1.30000000E+00  1.30000000E+00  1.30000000E+00  1.30000000E+00  1.30000000E+00
  1.30000000E+00  1.80000000E+00  1.50000000E+00  1.70000000E+00  1.70000000E+00
  1.30000000E+00  1.30000000E+00  1.30000000E+00  1.30000000E+00  1.30000000E+00
  1.30000000E+00  1.80000000E+00  1.50000000E+00  1.70000000E+00  1.70000000E+00
  1.30000000E+00  1.30000000E+00  1.30000000E+00  1.30000000E+00  1.30000000E+00
  1.30000000E+00  1.80000000E+00  1.50000000E+00  1.70000000E+00  1.70000000E+00
  1.30000000E+00  1.30000000E+00  1.30000000E+00  1.30000000E+00  1.30000000E+00
  1.30000000E+00  1.80000000E+00  1.50000000E+00  1.70000000E+00  1.70000000E+00
  1.30000000E+00  1.30000000E+00  1.30000000E+00  1.30000000E+00  1.30000000E+00
  1.30000000E+00  1.80000000E+00  1.50000000E+00  1.70000000E+00  1.70000000E+00
  1.30000000E+00  1.30000000E+00  1.30000000E+00  1.30000000E+00  1.30000000E+00
  1.30000000E+00  1.80000000E+00  1.50000000E+00  1.70000000E+00  1.70000000E+00
  1.30000000E+00  1.30000000E+00  1.30000000E+00  1.30000000E+00  1.30000000E+00
  1.30000000E+00  1.80000000E+00  1.50000000E+00  1.70000000E+00  1.70000000E+00
  1.30000000E+00  1.30000000E+00  1.30000000E+00  1.30000000E+00  1.30000000E+00
  1.30000000E+00  1.80000000E+00  1.50000000E+00  1.70000000E+00  1.70000000E+00
  1.30000000E+00  1.30000000E+00  1.30000000E+00  1.30000000E+00  1.30000000E+00
  1.30000000E+00  1.80000000E+00  1.50000000E+00  1.70000000E+00  1.70000000E+00
  1.30000000E+00  1.30000000E+00  1.30000000E+00  1.30000000E+00  1.30000000E+00
  1.30000000E+00  1.80000000E+00  1.50000000E+00  1.70000000E+00  1.70000000E+00
  1.30000000E+00  1.30000000E+00  1.30000000E+00  1.30000000E+00  1.30000000E+00
  1.30000000E+00  1.80000000E+00  1.50000000E+00  1.70000000E+00  1.70000000E+00
  1.30000000E+00  1.30000000E+00  1.30000000E+00  1.30000000E+00  1.30000000E+00
  1.30000000E+00  1.80000000E+00  1.50000000E+00  1.70000000E+00  1.70000000E+00
  1.30000000E+00  1.30000000E+00  1.30000000E+00  1.30000000E+00  1.30000000E+00
  1.30000000E+00  1.80000000E+00  1.50000000E+00  1.70000000E+00  1.70000000E+00
  1.30000000E+00  1.30000000E+00  1.30000000E+00  1.30000000E+00  1.30000000E+00
  1.30000000E+00  1.80000000E+00  1.50000000E+00  1.70000000E+00  1.70000000E+00
  1.30000000E+00  1.30000000E+00  1.30000000E+00  1.30000000E+00  1.30000000E+00
  1.30000000E+00  1.80000000E+00  1.50000000E+00  1.70000000E+00  1.70000000E+00
  1.30000000E+00  1.30000000E+00  1.30000000E+00  1.30000000E+00  1.30000000E+00
  1.30000000E+00  1.80000000E+00  1.50000000E+00  1.70000000E+00  1.70000000E+00
  1.30000000E+00  1.30000000E+00  1.30000000E+00  1.30000000E+00  1.30000000E+00
  1.30000000E+00  1.80000000E+00  1.50000000E+00  1.70000000E+00  1.70000000E+00
  1.30000000E+00  1.30000000E+00  1.30000000E+00  1.30000000E+00  1.30000000E+00
  1.30000000E+00  1.80000000E+00  1.50000000E+00  1.70000000E+00  1.70000000E+00
  1.30000000E+00  1.30000000E+00  1.30000000E+00  1.30000000E+00  1.30000000E+00
  1.30000000E+00  1.80000000E+00  1.50000000E+00  1.70000000E+00  1.70000000E+00
  1.30000000E+00  1.30000000E+00  1.30000000E+00  1.30000000E+00  1.30000000E+00
  1.30000000E+00  1.80000000E+00  1.50000000E+00  1.70000000E+00  1.70000000E+00
  1.30000000E+00  1.30000000E+00  1.30000000E+00  1.30000000E+00  1.30000000E+00
  1.30000000E+00  1.80000000E+00  1.50000000E+00  1.70000000E+00  1.70000000E+00
  1.30000000E+00  1.30000000E+00  1.30000000E+00  1.30000000E+00  1.30000000E+00
  1.30000000E+00  1.80000000E+00  1.50000000E+00  1.70000000E+00  1.70000000E+00
  1.30000000E+00  1.30000000E+00  1.30000000E+00  1.30000000E+00  1.30000000E+00
  1.30000000E+00  1.80000000E+00  1.50000000E+00  1.70000000E+00  1.70000000E+00
  1.30000000E+00  1.30000000E+00  1.30000000E+00  1.30000000E+00  1.30000000E+00
  1.30000000E+00  1.80000000E+00  1.50000000E+00  1.70000000E+00  1.70000000E+00
  1.30000000E+00  1.30000000E+00  1.30000000E+00  1.30000000E+00  1.30000000E+00
  1.30000000E+00  1.80000000E+00  1.50000000E+00  1.70000000E+00  1.70000000E+00
  1.30000000E+00  1.30000000E+00  1.30000000E+00  1.30000000E+00  1.30000000E+00
  1.30000000E+00  1.80000000E+00  1.50000000E+00  1.70000000E+00  1.70000000E+00
  1.30000000E+00  1.30000000E+00  1.30000000E+00  1.30000000E+00  1.30000000E+00
  1.30000000E+00  1.80000000E+00  1.50000000E+00  1.70000000E+00  1.70000000E+00
  1.30000000E+00  1.30000000E+00  1.30000000E+00  1.30000000E+00  1.30000000E+00
  1.30000000E+00  1.80000000E+00  1.50000000E+00  1.70000000E+00  1.70000000E+00
  1.30000000E+00  1.30000000E+00  1.30000000E+00  1.30000000E+00  1.30000000E+00
  1.30000000E+00  1.80000000E+00  1.50000000E+00  1.70000000E+00  1.70000000E+00
  1.30000000E+00  1.30000000E+00  1.30000000E+00  1.30000000E+00  1.30000000E+00
  1.30000000E+00  1.80000000E+00  1.50000000E+00  1.70000000E+00  1.70000000E+00
  1.30000000E+00  1.30000000E+00  1.30000000E+00  1.30000000E+00  1.30000000E+00
  1.30000000E+00  1.80000000E+00  1.50000000E+00  1.70000000E+00  1.70000000E+00
  1.30000000E+00  1.30000000E+00  1.30000000E+00  1.30000000E+00  1.30000000E+00
  1.30000000E+00  1.80000000E+00  1.50000000E+00  1.70000000E+00  1.70000000E+00
  1.30000000E+00  1.30000000E+00  1.30000000E+00  1.30000000E+00  1.30000000E+00
  1.30000000E+00  1.80000000E+00  1.50000000E+00  1.70000000E+00  1.70000000E+00
  1.30000000E+00  1.30000000E+00  1.30000000E+00  1.30000000E+00  1.30000000E+00
  1.30000000E+00  1.80000000E+00  1.50000000E+00  1.70000000E+00  1.70000000E+00
  1.30000000E+00  1.30000000E+00  1.30000000E+00  1.30000000E+00  1.30000000E+00
  1.30000000E+00  1.80000000E+00  1.50000000E+00  1.70000000E+00  1.70000000E+00
  1.30000000E+00  1.30000000E+00  1.30000000E+00  1.30000000E+00  1.30000000E+00
  1.30000000E+00  1.80000000E+00  1.50000000E+00  1.70000000E+00  1.70000000E+00
  1.30000000E+00  1.30000000E+00  1.30000000E+00  1.30000000E+00  1.30000000E+00
  1.30000000E+00  1.80000000E+00  1.50000000E+00  1.70000000E+00  1.70000000E+00
  1.30000000E+00  1.30000000E+00  1.30000000E+00  1.30000000E+00  1.30000000E+00
  1.30000000E+00  1.80000000E+00  1.50000000E+00  1.70000000E+00  1.70000000E+00
  1.30000000E+00  1.30000000E+00  1.30000000E+00  1.30000000E+00  1.30000000E+00
  1.30000000E+00  1.80000000E+00  1.50000000E+00  1.70000000E+00  1.70000000E+00
  1.30000000E+00  1.30000000E+00  1.30000000E+00  1.30000000E+00  1.30000000E+00
  1.30000000E+00  1.80000000E+00  1.50000000E+00  1.70000000E+00  1.70000000E+00
  1.30000000E+00  1.30000000E+00  1.30000000E+00  1.30000000E+00  1.30000000E+00
  1.30000000E+00  1.80000000E+00  1.50000000E+00  1.70000000E+00  1.70000000E+00
  1.30000000E+00  1.30000000E+00  1.30000000E+00  1.30000000E+00  1.30000000E+00
  1.30000000E+00  1.80000000E+00  1.50000000E+00  1.70000000E+00  1.70000000E+00
  1.30000000E+00  1.30000000E+00  1.30000000E+00  1.30000000E+00  1.30000000E+00
  1.30000000E+00  1.80000000E+00  1.50000000E+00  1.70000000E+00  1.70000000E+00
  1.30000000E+00  1.30000000E+00  1.30000000E+00  1.30000000E+00  1.30000000E+00
  1.30000000E+00  1.80000000E+00  1.50000000E+00  1.70000000E+00  1.70000000E+00
  1.30000000E+00  1.30000000E+00  1.30000000E+00  1.30000000E+00  1.30000000E+00
  1.30000000E+00  1.80000000E+00  1.50000000E+00  1.70000000E+00  1.70000000E+00
  1.30000000E+00  1.30000000E+00  1.30000000E+00  1.30000000E+00  1.30000000E+00
  1.30000000E+00  1.80000000E+00  1.50000000E+00  1.70000000E+00  1.70000000E+00
  1.30000000E+00  1.30000000E+00  1.30000000E+00  1.30000000E+00  1.30000000E+00
  1.30000000E+00  1.80000000E+00  1.50000000E+00  1.70000000E+00  1.70000000E+00
  1.30000000E+00  1.30000000E+00  1.30000000E+00  1.30000000E+00  1.30000000E+00
  1.30000000E+00  1.80000000E+00  1.50000000E+00  1.70000000E+00  1.70000000E+00
  1.30000000E+00  1.30000000E+00  1.30000000E+00  1.30000000E+00  1.30000000E+00
  1.30000000E+00  1.80000000E+00  1.50000000E+00  1.70000000E+00  1.70000000E+00
  1.30000000E+00  1.30000000E+00  1.30000000E+00  1.30000000E+00  1.30000000E+00
  1.30000000E+00  1.80000000E+00  1.50000000E+00  1.70000000E+00  1.70000000E+00
  1.30000000E+00  1.30000000E+00  1.30000000E+00  1.30000000E+00  1.30000000E+00
  1.30000000E+00  1.80000000E+00  1.50000000E+00  1.70000000E+00  1.70000000E+00
  1.30000000E+00  1.30000000E+00  1.30000000E+00  1.30000000E+00  1.30000000E+00
  1.30000000E+00  1.80000000E+00  1.50000000E+00  1.70000000E+00  1.70000000E+00
  1.30000000E+00  1.30000000E+00  1.30000000E+00  1.30000000E+00  1.30000000E+00
  1.30000000E+00  1.80000000E+00  1.50000000E+00  1.70000000E+00  1.70000000E+00
  1.30000000E+00  1.30000000E+00  1.30000000E+00  1.30000000E+00  1.30000000E+00
  1.30000000E+00  1.80000000E+00  1.50000000E+00  1.70000000E+00  1.70000000E+00
  1.30000000E+00  1.30000000E+00  1.30000000E+00  1.30000000E+00  1.30000000E+00
  1.30000000E+00  1.80000000E+00  1.50000000E+00  1.70000000E+00  1.70000000E+00
  1.30000000E+00  1.30000000E+00  1.30000000E+00  1.30000000E+00  1.30000000E+00
  1.30000000E+00  1.80000000E+00  1.50000000E+00  1.70000000E+00  1.70000000E+00
  1.30000000E+00  1.30000000E+00  1.30000000E+00  1.30000000E+00  1.30000000E+00
  1.30000000E+00  1.80000000E+00  1.50000000E+00  1.70000000E+00  1.70000000E+00
  1.30000000E+00  1.30000000E+00  1.30000000E+00  1.30000000E+00  1.30000000E+00
  1.30000000E+00  1.80000000E+00  1.50000000E+00  1.70000000E+00  1.70000000E+00
  1.30000000E+00  1.30000000E+00  1.30000000E+00  1.30000000E+00  1.30000000E+00
  1.30000000E+00  1.80000000E+00  1.50000000E+00  1.70000000E+00  1.70000000E+00
  1.30000000E+00  1.30000000E+00  1.30000000E+00  1.30000000E+00  1.30000000E+00
  1.30000000E+00  1.80000000E+00  1.50000000E+00  1.70000000E+00  1.70000000E+00
  1.30000000E+00  1.30000000E+00  1.30000000E+00  1.30000000E+00  1.30000000E+00
  1.30000000E+00  1.80000000E+00  1.50000000E+00  1.70000000E+00  1.70000000E+00
  1.30000000E+00  1.30000000E+00  1.30000000E+00  1.30000000E+00  1.30000000E+00
  1.30000000E+00  1.80000000E+00  1.50000000E+00  1.70000000E+00  1.70000000E+00
  1.30000000E+00  1.30000000E+00  1.30000000E+00  1.30000000E+00  1.30000000E+00
  1.30000000E+00  1.80000000E+00  1.50000000E+00  1.70000000E+00  1.70000000E+00
  1.30000000E+00  1.30000000E+00  1.30000000E+00  1.30000000E+00  1.30000000E+00
  1.30000000E+00  1.80000000E+00  1.50000000E+00  1.70000000E+00  1.70000000E+00
  1.30000000E+00  1.30000000E+00  1.30000000E+00  1.30000000E+00  1.30000000E+00
  1.30000000E+00  1.80000000E+00  1.50000000E+00  1.70000000E+00  1.70000000E+00
  1.30000000E+00  1.30000000E+00  1.30000000E+00  1.30000000E+00  1.30000000E+00
  1.30000000E+00  1.80000000E+00  1.50000000E+00  1.70000000E+00  1.70000000E+00
  1.30000000E+00  1.30000000E+00  1.30000000E+00  1.30000000E+00  1.30000000E+00
  1.30000000E+00  1.80000000E+00  1.50000000E+00  1.70000000E+00  1.70000000E+00
  1.30000000E+00  1.30000000E+00  1.30000000E+00  1.30000000E+00  1.30000000E+00
  1.30000000E+00  1.80000000E+00  1.50000000E+00  1.70000000E+00  1.70000000E+00
  1.30000000E+00  1.30000000E+00  1.30000000E+00  1.30000000E+00  1.30000000E+00
  1.30000000E+00  1.80000000E+00  1.50000000E+00  1.70000000E+00  1.70000000E+00
  1.30000000E+00  1.30000000E+00  1.30000000E+00  1.30000000E+00  1.30000000E+00
  1.30000000E+00  1.80000000E+00  1.50000000E+00  1.70000000E+00  1.70000000E+00
  1.30000000E+00  1.30000000E+00  1.30000000E+00  1.30000000E+00  1.30000000E+00
  1.30000000E+00  1.80000000E+00  1.50000000E+00  1.70000000E+00  1.70000000E+00
  1.30000000E+00  1.30000000E+00  1.30000000E+00  1.30000000E+00  1.30000000E+00
  1.30000000E+00  1.80000000E+00  1.50000000E+00  1.70000000E+00  1.70000000E+00
  1.30000000E+00  1.30000000E+00  1.30000000E+00  1.30000000E+00  1.30000000E+00
  1.30000000E+00  1.80000000E+00  1.50000000E+00  1.70000000E+00  1.70000000E+00
  1.30000000E+00  1.30000000E+00  1.30000000E+00  1.30000000E+00  1.30000000E+00
  1.30000000E+00  1.80000000E+00  1.50000000E+00  1.70000000E+00  1.70000000E+00
  1.30000000E+00  1.30000000E+00  1.30000000E+00  1.30000000E+00  1.30000000E+00
  1.30000000E+00  1.80000000E+00  1.50000000E+00  1.70000000E+00  1.70000000E+00
  1.30000000E+00  1.30000000E+00  1.30000000E+00  1.30000000E+00  1.30000000E+00
  1.30000000E+00  1.80000000E+00  1.50000000E+00  1.70000000E+00  1.70000000E+00
  1.30000000E+00  1.30000000E+00  1.30000000E+00  1.30000000E+00  1.30000000E+00
  1.30000000E+00  1.80000000E+00  1.50000000E+00  1.70000000E+00  1.70000000E+00
  1.30000000E+00  1.30000000E+00  1.30000000E+00  1.30000000E+00  1.30000000E+00
  1.30000000E+00  1.80000000E+00  1.50000000E+00  1.70000000E+00  1.70000000E+00
  1.30000000E+00  1.30000000E+00  1.30000000E+00  1.30000000E+00  1.30000000E+00
  1.30000000E+00  1.80000000E+00  1.50000000E+00  1.70000000E+00  1.70000000E+00
  1.30000000E+00  1.30000000E+00  1.30000000E+00  1.30000000E+00  1.30000000E+00
  1.30000000E+00  1.80000000E+00  1.50000000E+00  1.70000000E+00  1.70000000E+00
  1.30000000E+00  1.30000000E+00  1.30000000E+00  1.30000000E+00  1.30000000E+00
  1.30000000E+00  1.80000000E+00  1.50000000E+00  1.70000000E+00  1.70000000E+00
  1.30000000E+00  1.30000000E+00  1.30000000E+00  1.30000000E+00  1.30000000E+00
  1.30000000E+00  1.80000000E+00  1.50000000E+00  1.70000000E+00  1.70000000E+00
  1.30000000E+00  1.30000000E+00  1.30000000E+00  1.30000000E+00  1.30000000E+00
  1.30000000E+00  1.80000000E+00  1.50000000E+00  1.70000000E+00  1.70000000E+00
  1.30000000E+00  1.30000000E+00  1.30000000E+00  1.30000000E+00  1.30000000E+00
  1.30000000E+00  1.80000000E+00  1.50000000E+00  1.70000000E+00  1.70000000E+00
  1.30000000E+00  1.30000000E+00  1.30000000E+00  1.30000000E+00  1.30000000E+00
  1.30000000E+00  1.80000000E+00  1.50000000E+00  1.70000000E+00  1.70000000E+00
  1.30000000E+00  1.30000000E+00  1.30000000E+00  1.30000000E+00  1.30000000E+00
  1.30000000E+00  1.80000000E+00  1.50000000E+00  1.70000000E+00  1.70000000E+00
  1.30000000E+00  1.30000000E+00  1.30000000E+00  1.30000000E+00  1.30000000E+00
  1.30000000E+00  1.80000000E+00  1.50000000E+00  1.70000000E+00  1.70000000E+00
  1.30000000E+00  1.30000000E+00  1.30000000E+00  1.30000000E+00  1.30000000E+00
  1.30000000E+00  1.80000000E+00  1.50000000E+00  1.70000000E+00  1.70000000E+00
  1.30000000E+00  1.30000000E+00  1.30000000E+00  1.30000000E+00  1.30000000E+00
  1.30000000E+00  1.80000000E+00  1.50000000E+00  1.70000000E+00  1.70000000E+00
  1.30000000E+00  1.30000000E+00  1.30000000E+00  1.30000000E+00  1.30000000E+00
  1.30000000E+00  1.80000000E+00  1.50000000E+00  1.70000000E+00  1.70000000E+00
  1.30000000E+00  1.30000000E+00  1.30000000E+00  1.30000000E+00  1.30000000E+00
  1.30000000E+00  1.80000000E+00  1.50000000E+00  1.70000000E+00  1.70000000E+00
  1.30000000E+00  1.30000000E+00  1.30000000E+00  1.30000000E+00  1.30000000E+00
  1.30000000E+00  1.80000000E+00  1.50000000E+00  1.70000000E+00  1.70000000E+00
  1.30000000E+00  1.30000000E+00  1.30000000E+00  1.30000000E+00  1.30000000E+00
  1.30000000E+00  1.80000000E+00  1.50000000E+00  1.70000000E+00  1.70000000E+00
  1.30000000E+00  1.30000000E+00  1.30000000E+00  1.30000000E+00  1.30000000E+00
  1.30000000E+00  1.80000000E+00  1.50000000E+00  1.70000000E+00  1.70000000E+00
  1.30000000E+00  1.30000000E+00  1.30000000E+00  1.30000000E+00  1.30000000E+00
  1.30000000E+00  1.80000000E+00  1.50000000E+00  1.70000000E+00  1.70000000E+00
  1.30000000E+00  1.30000000E+00  1.30000000E+00  1.30000000E+00  1.30000000E+00
  1.30000000E+00  1.80000000E+00  1.50000000E+00  1.70000000E+00  1.70000000E+00
  1.30000000E+00  1.30000000E+00  1.30000000E+00  1.30000000E+00  1.30000000E+00
  1.30000000E+00  1.80000000E+00  1.50000000E+00  1.70000000E+00  1.70000000E+00
  1.30000000E+00  1.30000000E+00  1.30000000E+00  1.30000000E+00  1.30000000E+00
  1.30000000E+00  1.80000000E+00  1.50000000E+00  1.70000000E+00  1.70000000E+00
  1.30000000E+00  1.30000000E+00  1.30000000E+00  1.30000000E+00  1.30000000E+00
  1.30000000E+00  1.80000000E+00  1.50000000E+00  1.70000000E+00  1.70000000E+00
  1.30000000E+00  1.30000000E+00  1.30000000E+00  1.30000000E+00  1.30000000E+00
  1.30000000E+00  1.80000000E+00  1.50000000E+00  1.70000000E+00  1.70000000E+00
  1.30000000E+00  1.30000000E+00  1.30000000E+00  1.30000000E+00  1.30000000E+00
  1.30000000E+00  1.80000000E+00  1.50000000E+00  1.70000000E+00  1.70000000E+00
  1.30000000E+00  1.30000000E+00  1.30000000E+00  1.30000000E+00  1.30000000E+00
  1.30000000E+00  1.80000000E+00  1.50000000E+00  1.70000000E+00  1.70000000E+00
  1.30000000E+00  1.30000000E+00  1.30000000E+00  1.30000000E+00  1.30000000E+00
  1.30000000E+00  1.80000000E+00  1.50000000E+00  1.70000000E+00  1.70000000E+00
  1.30000000E+00  1.30000000E+00  1.30000000E+00  1.30000000E+00  1.30000000E+00
  1.30000000E+00  1.80000000E+00  1.50000000E+00  1.70000000E+00  1.70000000E+00
  1.30000000E+00  1.30000000E+00  1.30000000E+00  1.30000000E+00  1.30000000E+00
  1.30000000E+00  1.80000000E+00  1.50000000E+00  1.70000000E+00  1.70000000E+00
  1.30000000E+00  1.30000000E+00  1.30000000E+00  1.30000000E+00  1.30000000E+00
  1.30000000E+00  1.80000000E+00  1.50000000E+00  1.70000000E+00  1.70000000E+00
  1.30000000E+00  1.30000000E+00  1.30000000E+00  1.30000000E+00  1.30000000E+00
  1.30000000E+00  1.80000000E+00  1.50000000E+00  1.70000000E+00  1.70000000E+00
  1.30000000E+00  1.30000000E+00  1.30000000E+00  1.30000000E+00  1.30000000E+00
  1.30000000E+00  1.80000000E+00  1.50000000E+00  1.70000000E+00  1.70000000E+00
  1.30000000E+00  1.30000000E+00  1.30000000E+00  1.30000000E+00  1.30000000E+00
  1.30000000E+00  1.80000000E+00  1.50000000E+00  1.70000000E+00  1.70000000E+00
  1.30000000E+00  1.30000000E+00  1.30000000E+00  1.30000000E+00  1.30000000E+00
  1.30000000E+00  1.80000000E+00  1.50000000E+00  1.70000000E+00  1.70000000E+00
  1.30000000E+00  1.30000000E+00  1.30000000E+00  1.30000000E+00  1.30000000E+00
  1.30000000E+00  1.80000000E+00  1.50000000E+00  1.70000000E+00  1.70000000E+00
  1.30000000E+00  1.30000000E+00  1.30000000E+00  1.30000000E+00  1.30000000E+00
  1.30000000E+00  1.80000000E+00  1.50000000E+00  1.70000000E+00  1.70000000E+00
  1.30000000E+00  1.30000000E+00  1.30000000E+00  1.30000000E+00  1.30000000E+00
  1.30000000E+00  1.80000000E+00  1.50000000E+00  1.70000000E+00  1.70000000E+00
  1.30000000E+00  1.30000000E+00  1.30000000E+00  1.30000000E+00  1.30000000E+00
  1.30000000E+00  1.80000000E+00  1.50000000E+00  1.70000000E+00  1.70000000E+00
  1.30000000E+00  1.30000000E+00  1.30000000E+00  1.30000000E+00  1.30000000E+00
  1.30000000E+00  1.80000000E+00  1.50000000E+00  1.70000000E+00  1.70000000E+00
  1.30000000E+00  1.30000000E+00  1.30000000E+00  1.30000000E+00  1.30000000E+00
  1.30000000E+00  1.80000000E+00  1.50000000E+00  1.70000000E+00  1.70000000E+00
  1.30000000E+00  1.30000000E+00  1.30000000E+00  1.30000000E+00  1.30000000E+00
  1.30000000E+00  1.80000000E+00  1.50000000E+00  1.70000000E+00  1.70000000E+00
  1.30000000E+00  1.30000000E+00  1.30000000E+00  1.30000000E+00  1.30000000E+00
  1.30000000E+00  1.80000000E+00  1.50000000E+00  1.70000000E+00  1.70000000E+00
  1.30000000E+00  1.30000000E+00  1.30000000E+00  1.30000000E+00  1.30000000E+00
  1.30000000E+00  1.80000000E+00  1.50000000E+00  1.70000000E+00  1.70000000E+00
  1.30000000E+00  1.30000000E+00  1.30000000E+00  1.30000000E+00  1.30000000E+00
  1.30000000E+00  1.80000000E+00  1.50000000E+00  1.70000000E+00  1.70000000E+00
  1.30000000E+00  1.30000000E+00  1.30000000E+00  1.30000000E+00  1.30000000E+00
  1.30000000E+00  1.80000000E+00  1.50000000E+00  1.70000000E+00  1.70000000E+00
  1.30000000E+00  1.30000000E+00  1.30000000E+00  1.30000000E+00  1.30000000E+00
  1.30000000E+00  1.80000000E+00  1.50000000E+00  1.70000000E+00  1.70000000E+00
  1.30000000E+00  1.30000000E+00  1.30000000E+00  1.30000000E+00  1.30000000E+00
  1.30000000E+00  1.80000000E+00  1.50000000E+00  1.70000000E+00  1.70000000E+00
  1.30000000E+00  1.30000000E+00  1.30000000E+00  1.30000000E+00  1.30000000E+00
  1.30000000E+00  1.80000000E+00  1.50000000E+00  1.70000000E+00  1.70000000E+00
  1.30000000E+00  1.30000000E+00  1.30000000E+00  1.30000000E+00  1.30000000E+00
  1.30000000E+00  1.80000000E+00  1.50000000E+00  1.70000000E+00  1.70000000E+00
  1.30000000E+00  1.30000000E+00  1.30000000E+00  1.30000000E+00  1.30000000E+00
  1.30000000E+00  1.80000000E+00  1.50000000E+00  1.70000000E+00  1.70000000E+00
  1.30000000E+00  1.30000000E+00  1.30000000E+00  1.30000000E+00  1.30000000E+00
  1.30000000E+00  1.80000000E+00  1.50000000E+00  1.70000000E+00  1.70000000E+00
  1.30000000E+00  1.30000000E+00  1.30000000E+00  1.30000000E+00  1.30000000E+00
  1.30000000E+00  1.80000000E+00  1.50000000E+00  1.70000000E+00  1.70000000E+00
  1.30000000E+00  1.30000000E+00  1.30000000E+00  1.30000000E+00  1.30000000E+00
  1.30000000E+00  1.80000000E+00  1.50000000E+00  1.70000000E+00  1.70000000E+00
  1.30000000E+00  1.30000000E+00  1.30000000E+00  1.30000000E+00  1.30000000E+00
  1.30000000E+00  1.80000000E+00  1.50000000E+00  1.70000000E+00  1.70000000E+00
  1.30000000E+00  1.30000000E+00  1.30000000E+00  1.30000000E+00  1.30000000E+00
  1.30000000E+00  1.80000000E+00  1.50000000E+00  1.70000000E+00  1.70000000E+00
  1.30000000E+00  1.30000000E+00  1.30000000E+00  1.30000000E+00  1.30000000E+00
  1.30000000E+00  1.80000000E+00  1.50000000E+00  1.70000000E+00  1.70000000E+00
  1.30000000E+00  1.30000000E+00  1.30000000E+00  1.30000000E+00  1.30000000E+00
  1.30000000E+00  1.80000000E+00  1.50000000E+00  1.70000000E+00  1.70000000E+00
  1.30000000E+00  1.30000000E+00  1.30000000E+00  1.30000000E+00  1.30000000E+00
  1.30000000E+00  1.80000000E+00  1.50000000E+00  1.70000000E+00  1.70000000E+00
  1.30000000E+00  1.30000000E+00  1.30000000E+00  1.30000000E+00  1.30000000E+00
  1.30000000E+00  1.80000000E+00  1.50000000E+00  1.70000000E+00  1.70000000E+00
  1.30000000E+00  1.30000000E+00  1.30000000E+00  1.30000000E+00  1.30000000E+00
  1.30000000E+00  1.80000000E+00  1.50000000E+00  1.70000000E+00  1.70000000E+00
  1.30000000E+00  1.30000000E+00  1.30000000E+00  1.30000000E+00  1.30000000E+00
  1.30000000E+00  1.80000000E+00  1.50000000E+00  1.70000000E+00  1.70000000E+00
  1.30000000E+00  1.30000000E+00  1.30000000E+00  1.30000000E+00  1.30000000E+00
  1.30000000E+00  1.80000000E+00  1.50000000E+00  1.70000000E+00  1.70000000E+00
  1.30000000E+00  1.30000000E+00  1.30000000E+00  1.30000000E+00  1.30000000E+00
  1.30000000E+00  1.80000000E+00  1.50000000E+00  1.70000000E+00  1.70000000E+00
  1.30000000E+00  1.30000000E+00  1.30000000E+00  1.30000000E+00  1.30000000E+00
  1.30000000E+00  1.80000000E+00  1.50000000E+00  1.70000000E+00  1.70000000E+00
  1.30000000E+00  1.30000000E+00  1.30000000E+00  1.30000000E+00  1.30000000E+00
  1.30000000E+00  1.80000000E+00  1.50000000E+00  1.70000000E+00  1.70000000E+00
  1.30000000E+00  1.30000000E+00  1.30000000E+00  1.30000000E+00  1.30000000E+00
  1.30000000E+00  1.80000000E+00  1.50000000E+00  1.70000000E+00  1.70000000E+00
  1.30000000E+00  1.30000000E+00  1.30000000E+00  1.30000000E+00  1.30000000E+00
  1.30000000E+00  1.80000000E+00  1.50000000E+00  1.70000000E+00  1.70000000E+00
  1.30000000E+00  1.30000000E+00  1.30000000E+00  1.30000000E+00  1.30000000E+00
  1.30000000E+00  1.80000000E+00  1.50000000E+00  1.70000000E+00  1.70000000E+00
  1.30000000E+00  1.30000000E+00  1.30000000E+00  1.30000000E+00  1.30000000E+00
  1.30000000E+00  1.80000000E+00  1.50000000E+00  1.70000000E+00  1.70000000E+00
  1.30000000E+00  1.30000000E+00  1.30000000E+00  1.30000000E+00  1.30000000E+00
  1.30000000E+00  1.80000000E+00  1.50000000E+00  1.70000000E+00  1.70000000E+00
  1.30000000E+00  1.30000000E+00  1.30000000E+00  1.30000000E+00  1.30000000E+00
  1.30000000E+00  1.80000000E+00  1.50000000E+00  1.70000000E+00  1.70000000E+00
  1.30000000E+00  1.30000000E+00  1.30000000E+00  1.30000000E+00  1.30000000E+00
  1.30000000E+00  1.80000000E+00  1.50000000E+00  1.70000000E+00  1.70000000E+00
  1.30000000E+00  1.30000000E+00  1.30000000E+00  1.30000000E+00  1.30000000E+00
  1.30000000E+00  1.80000000E+00  1.50000000E+00  1.70000000E+00  1.70000000E+00
  1.30000000E+00  1.30000000E+00  1.30000000E+00  1.30000000E+00  1.30000000E+00
  1.30000000E+00  1.80000000E+00  1.50000000E+00  1.70000000E+00  1.70000000E+00
  1.30000000E+00  1.30000000E+00  1.30000000E+00  1.30000000E+00  1.30000000E+00
  1.30000000E+00  1.80000000E+00  1.50000000E+00  1.70000000E+00  1.70000000E+00
  1.30000000E+00  1.30000000E+00  1.30000000E+00  1.30000000E+00  1.30000000E+00
  1.30000000E+00  1.80000000E+00  1.50000000E+00  1.70000000E+00  1.70000000E+00
  1.30000000E+00  1.30000000E+00  1.30000000E+00  1.30000000E+00  1.30000000E+00
  1.30000000E+00  1.80000000E+00  1.50000000E+00  1.70000000E+00  1.70000000E+00
  1.30000000E+00  1.30000000E+00  1.30000000E+00  1.30000000E+00  1.30000000E+00
  1.30000000E+00  1.80000000E+00  1.50000000E+00  1.70000000E+00  1.70000000E+00
  1.30000000E+00  1.30000000E+00  1.30000000E+00  1.30000000E+00  1.30000000E+00
  1.30000000E+00  1.80000000E+00  1.50000000E+00  1.70000000E+00  1.70000000E+00
  1.30000000E+00  1.30000000E+00  1.30000000E+00  1.30000000E+00  1.30000000E+00
  1.30000000E+00  1.80000000E+00  1.50000000E+00  1.70000000E+00  1.70000000E+00
  1.30000000E+00  1.30000000E+00  1.30000000E+00  1.30000000E+00  1.30000000E+00
  1.30000000E+00  1.80000000E+00  1.50000000E+00  1.70000000E+00  1.70000000E+00
  1.30000000E+00  1.30000000E+00  1.30000000E+00  1.30000000E+00  1.30000000E+00
  1.30000000E+00  1.80000000E+00  1.50000000E+00  1.70000000E+00  1.70000000E+00
  1.30000000E+00  1.30000000E+00  1.30000000E+00  1.30000000E+00  1.30000000E+00
  1.30000000E+00  1.80000000E+00  1.50000000E+00  1.70000000E+00  1.70000000E+00
  1.30000000E+00  1.30000000E+00  1.30000000E+00  1.30000000E+00  1.30000000E+00
  1.30000000E+00  1.80000000E+00  1.50000000E+00  1.70000000E+00  1.70000000E+00
  1.30000000E+00  1.30000000E+00  1.30000000E+00  1.30000000E+00  1.30000000E+00
  1.30000000E+00  1.80000000E+00  1.50000000E+00  1.70000000E+00  1.70000000E+00
  1.30000000E+00  1.30000000E+00  1.30000000E+00  1.30000000E+00  1.30000000E+00
  1.30000000E+00  1.80000000E+00  1.50000000E+00  1.70000000E+00  1.70000000E+00
  1.30000000E+00  1.30000000E+00  1.30000000E+00  1.30000000E+00  1.30000000E+00
  1.30000000E+00  1.80000000E+00  1.50000000E+00  1.70000000E+00  1.70000000E+00
  1.30000000E+00  1.30000000E+00  1.30000000E+00  1.30000000E+00  1.30000000E+00
  1.30000000E+00  1.80000000E+00  1.50000000E+00  1.70000000E+00  1.70000000E+00
  1.30000000E+00  1.30000000E+00  1.30000000E+00  1.30000000E+00  1.30000000E+00
  1.30000000E+00  1.80000000E+00  1.50000000E+00  1.70000000E+00  1.70000000E+00
  1.30000000E+00  1.30000000E+00  1.30000000E+00  1.30000000E+00  1.30000000E+00
  1.30000000E+00  1.80000000E+00  1.50000000E+00  1.70000000E+00  1.70000000E+00
  1.30000000E+00  1.30000000E+00  1.30000000E+00  1.30000000E+00  1.30000000E+00
  1.30000000E+00  1.80000000E+00  1.50000000E+00  1.70000000E+00  1.70000000E+00
  1.30000000E+00  1.30000000E+00  1.30000000E+00  1.30000000E+00  1.30000000E+00
  1.30000000E+00  1.80000000E+00  1.50000000E+00  1.70000000E+00  1.70000000E+00
  1.30000000E+00  1.30000000E+00  1.30000000E+00  1.30000000E+00  1.30000000E+00
  1.30000000E+00  1.80000000E+00  1.50000000E+00  1.70000000E+00  1.70000000E+00
  1.30000000E+00  1.30000000E+00  1.30000000E+00  1.30000000E+00  1.30000000E+00
  1.30000000E+00  1.80000000E+00  1.50000000E+00  1.70000000E+00  1.70000000E+00
  1.30000000E+00  1.30000000E+00  1.30000000E+00  1.30000000E+00  1.30000000E+00
  1.30000000E+00  1.80000000E+00  1.50000000E+00  1.70000000E+00  1.70000000E+00
  1.30000000E+00  1.30000000E+00  1.30000000E+00  1.30000000E+00  1.30000000E+00
  1.30000000E+00  1.80000000E+00  1.50000000E+00  1.70000000E+00  1.70000000E+00
  1.30000000E+00  1.30000000E+00  1.30000000E+00  1.30000000E+00  1.30000000E+00
  1.30000000E+00  1.80000000E+00  1.50000000E+00  1.70000000E+00  1.70000000E+00
  1.30000000E+00  1.30000000E+00  1.30000000E+00  1.30000000E+00  1.30000000E+00
  1.30000000E+00  1.80000000E+00  1.50000000E+00  1.70000000E+00  1.70000000E+00
  1.30000000E+00  1.30000000E+00  1.30000000E+00  1.30000000E+00  1.30000000E+00
  1.30000000E+00  1.80000000E+00  1.50000000E+00  1.70000000E+00  1.70000000E+00
  1.30000000E+00  1.30000000E+00  1.30000000E+00  1.30000000E+00  1.30000000E+00
  1.30000000E+00  1.80000000E+00  1.50000000E+00  1.70000000E+00  1.70000000E+00
  1.30000000E+00  1.30000000E+00  1.30000000E+00  1.30000000E+00  1.30000000E+00
  1.30000000E+00  1.80000000E+00  1.50000000E+00  1.70000000E+00  1.70000000E+00
  1.30000000E+00  1.30000000E+00  1.30000000E+00  1.30000000E+00  1.30000000E+00
  1.30000000E+00  1.80000000E+00  1.50000000E+00  1.70000000E+00  1.70000000E+00
  1.30000000E+00  1.30000000E+00  1.30000000E+00  1.30000000E+00  1.30000000E+00
  1.30000000E+00  1.80000000E+00  1.50000000E+00  1.70000000E+00  1.70000000E+00
  1.30000000E+00  1.30000000E+00  1.30000000E+00  1.30000000E+00  1.30000000E+00
  1.30000000E+00  1.80000000E+00  1.50000000E+00  1.70000000E+00  1.70000000E+00
  1.30000000E+00  1.30000000E+00  1.30000000E+00  1.30000000E+00  1.30000000E+00
  1.30000000E+00  1.80000000E+00  1.50000000E+00  1.70000000E+00  1.70000000E+00
  1.30000000E+00  1.30000000E+00  1.30000000E+00  1.30000000E+00  1.30000000E+00
  1.30000000E+00  1.80000000E+00  1.50000000E+00  1.70000000E+00  1.70000000E+00
  1.30000000E+00  1.30000000E+00  1.30000000E+00  1.30000000E+00  1.30000000E+00
  1.30000000E+00  1.80000000E+00  1.50000000E+00  1.70000000E+00  1.70000000E+00
  1.30000000E+00  1.30000000E+00  1.30000000E+00  1.30000000E+00  1.30000000E+00
  1.30000000E+00
%FLAG SCREEN                                                                    
%FORMAT(5E16.8)                                                                 
  8.50000000E-01  8.50000000E-01  7.90000000E-01  7.90000000E-01  7.20000000E-01
  7.20000000E-01  7.20000000E-01  7.20000000E-01  7.20000000E-01  7.20000000E-01
  7.20000000E-01  7.20000000E-01  7.20000000E-01  7.20000000E-01  7.20000000E-01
  7.20000000E-01  7.20000000E-01  7.20000000E-01  7.20000000E-01  7.20000000E-01
  7.20000000E-01  7.20000000E-01  7.20000000E-01  7.20000000E-01  8.50000000E-01
  8.50000000E-01  8.50000000E-01  8.50000000E-01  8.50000000E-01  8.50000000E-01
  8.50000000E-01  8.50000000E-01  8.50000000E-01  8.50000000E-01  8.50000000E-01
  8.50000000E-01  9.60000000E-01  8.50000000E-01  7.20000000E-01  7.20000000E-01
  8.50000000E-01  8.50000000E-01  8.50000000E-01  8.50000000E-01  8.50000000E-01
  8.50000000E-01  9.60000000E-01  8.50000000E-01  7.20000000E-01  7.20000000E-01
  8.50000000E-01  8.50000000E-01  8.50000000E-01  8.50000000E-01  8.50000000E-01
  8.50000000E-01  9.60000000E-01  8.50000000E-01  7.20000000E-01  7.20000000E-01
  8.50000000E-01  8.50000000E-01  8.50000000E-01  8.50000000E-01  8.50000000E-01
  8.50000000E-01  9.60000000E-01  8.50000000E-01  7.20000000E-01  7.20000000E-01
  8.50000000E-01  8.50000000E-01  8.50000000E-01  8.50000000E-01  8.50000000E-01
  8.50000000E-01  9.60000000E-01  8.50000000E-01  7.20000000E-01  7.20000000E-01
  8.50000000E-01  8.50000000E-01  8.50000000E-01  8.50000000E-01  8.50000000E-01
  8.50000000E-01  9.60000000E-01  8.50000000E-01  7.20000000E-01  7.20000000E-01
  8.50000000E-01  8.50000000E-01  8.50000000E-01  8.50000000E-01  8.50000000E-01
  8.50000000E-01  9.60000000E-01  8.50000000E-01  7.20000000E-01  7.20000000E-01
  8.50000000E-01  8.50000000E-01  8.50000000E-01  8.50000000E-01  8.50000000E-01
  8.50000000E-01  9.60000000E-01  8.50000000E-01  7.20000000E-01  7.20000000E-01
  8.50000000E-01  8.50000000E-01  8.50000000E-01  8.50000000E-01  8.50000000E-01
  8.50000000E-01  9.60000000E-01  8.50000000E-01  7.20000000E-01  7.20000000E-01
  8.50000000E-01  8.50000000E-01  8.50000000E-01  8.50000000E-01  8.50000000E-01
  8.50000000E-01  9.60000000E-01  8.50000000E-01  7.20000000E-01  7.20000000E-01
  8.50000000E-01  8.50000000E-01  8.50000000E-01  8.50000000E-01  8.50000000E-01
  8.50000000E-01  9.60000000E-01  8.50000000E-01  7.20000000E-01  7.20000000E-01
  8.50000000E-01  8.50000000E-01  8.50000000E-01  8.50000000E-01  8.50000000E-01
  8.50000000E-01  9.60000000E-01  8.50000000E-01  7.20000000E-01  7.20000000E-01
  8.50000000E-01  8.50000000E-01  8.50000000E-01  8.50000000E-01  8.50000000E-01
  8.50000000E-01  9.60000000E-01  8.50000000E-01  7.20000000E-01  7.20000000E-01
  8.50000000E-01  8.50000000E-01  8.50000000E-01  8.50000000E-01  8.50000000E-01
  8.50000000E-01  9.60000000E-01  8.50000000E-01  7.20000000E-01  7.20000000E-01
  8.50000000E-01  8.50000000E-01  8.50000000E-01  8.50000000E-01  8.50000000E-01
  8.50000000E-01  9.60000000E-01  8.50000000E-01  7.20000000E-01  7.20000000E-01
  8.50000000E-01  8.50000000E-01  8.50000000E-01  8.50000000E-01  8.50000000E-01
  8.50000000E-01  9.60000000E-01  8.50000000E-01  7.20000000E-01  7.20000000E-01
  8.50000000E-01  8.50000000E-01  8.50000000E-01  8.50000000E-01  8.50000000E-01
  8.50000000E-01  9.60000000E-01  8.50000000E-01  7.20000000E-01  7.20000000E-01
  8.50000000E-01  8.50000000E-01  8.50000000E-01  8.50000000E-01  8.50000000E-01
  8.50000000E-01  9.60000000E-01  8.50000000E-01  7.20000000E-01  7.20000000E-01
  8.50000000E-01  8.50000000E-01  8.50000000E-01  8.50000000E-01  8.50000000E-01
  8.50000000E-01  9.60000000E-01  8.50000000E-01  7.20000000E-01  7.20000000E-01
  8.50000000E-01  8.50000000E-01  8.50000000E-01  8.50000000E-01  8.50000000E-01
  8.50000000E-01  9.60000000E-01  8.50000000E-01  7.20000000E-01  7.20000000E-01
  8.50000000E-01  8.50000000E-01  8.50000000E-01  8.50000000E-01  8.50000000E-01
  8.50000000E-01  9.60000000E-01  8.50000000E-01  7.20000000E-01  7.20000000E-01
  8.50000000E-01  8.50000000E-01  8.50000000E-01  8.50000000E-01  8.50000000E-01
  8.50000000E-01  9.60000000E-01  8.50000000E-01  7.20000000E-01  7.20000000E-01
  8.50000000E-01  8.50000000E-01  8.50000000E-01  8.50000000E-01  8.50000000E-01
  8.50000000E-01  9.60000000E-01  8.50000000E-01  7.20000000E-01  7.20000000E-01
  8.50000000E-01  8.50000000E-01  8.50000000E-01  8.50000000E-01  8.50000000E-01
  8.50000000E-01  9.60000000E-01  8.50000000E-01  7.20000000E-01  7.20000000E-01
  8.50000000E-01  8.50000000E-01  8.50000000E-01  8.50000000E-01  8.50000000E-01
  8.50000000E-01  9.60000000E-01  8.50000000E-01  7.20000000E-01  7.20000000E-01
  8.50000000E-01  8.50000000E-01  8.50000000E-01  8.50000000E-01  8.50000000E-01
  8.50000000E-01  9.60000000E-01  8.50000000E-01  7.20000000E-01  7.20000000E-01
  8.50000000E-01  8.50000000E-01  8.50000000E-01  8.50000000E-01  8.50000000E-01
  8.50000000E-01  9.60000000E-01  8.50000000E-01  7.20000000E-01  7.20000000E-01
  8.50000000E-01  8.50000000E-01  8.50000000E-01  8.50000000E-01  8.50000000E-01
  8.50000000E-01  9.60000000E-01  8.50000000E-01  7.20000000E-01  7.20000000E-01
  8.50000000E-01  8.50000000E-01  8.50000000E-01  8.50000000E-01  8.50000000E-01
  8.50000000E-01  9.60000000E-01  8.50000000E-01  7.20000000E-01  7.20000000E-01
  8.50000000E-01  8.50000000E-01  8.50000000E-01  8.50000000E-01  8.50000000E-01
  8.50000000E-01  9.60000000E-01  8.50000000E-01  7.20000000E-01  7.20000000E-01
  8.50000000E-01  8.50000000E-01  8.50000000E-01  8.50000000E-01  8.50000000E-01
  8.50000000E-01  9.60000000E-01  8.50000000E-01  7.20000000E-01  7.20000000E-01
  8.50000000E-01  8.50000000E-01  8.50000000E-01  8.50000000E-01  8.50000000E-01
  8.50000000E-01  9.60000000E-01  8.50000000E-01  7.20000000E-01  7.20000000E-01
  8.50000000E-01  8.50000000E-01  8.50000000E-01  8.50000000E-01  8.50000000E-01
  8.50000000E-01  9.60000000E-01  8.50000000E-01  7.20000000E-01  7.20000000E-01
  8.50000000E-01  8.50000000E-01  8.50000000E-01  8.50000000E-01  8.50000000E-01
  8.50000000E-01  9.60000000E-01  8.50000000E-01  7.20000000E-01  7.20000000E-01
  8.50000000E-01  8.50000000E-01  8.50000000E-01  8.50000000E-01  8.50000000E-01
  8.50000000E-01  9.60000000E-01  8.50000000E-01  7.20000000E-01  7.20000000E-01
  8.50000000E-01  8.50000000E-01  8.50000000E-01  8.50000000E-01  8.50000000E-01
  8.50000000E-01  9.60000000E-01  8.50000000E-01  7.20000000E-01  7.20000000E-01
  8.50000000E-01  8.50000000E-01  8.50000000E-01  8.50000000E-01  8.50000000E-01
  8.50000000E-01  9.60000000E-01  8.50000000E-01  7.20000000E-01  7.20000000E-01
  8.50000000E-01  8.50000000E-01  8.50000000E-01  8.50000000E-01  8.50000000E-01
  8.50000000E-01  9.60000000E-01  8.50000000E-01  7.20000000E-01  7.20000000E-01
  8.50000000E-01  8.50000000E-01  8.50000000E-01  8.50000000E-01  8.50000000E-01
  8.50000000E-01  9.60000000E-01  8.50000000E-01  7.20000000E-01  7.20000000E-01
  8.50000000E-01  8.50000000E-01  8.50000000E-01  8.50000000E-01  8.50000000E-01
  8.50000000E-01  9.60000000E-01  8.50000000E-01  7.20000000E-01  7.20000000E-01
  8.50000000E-01  8.50000000E-01  8.50000000E-01  8.50000000E-01  8.50000000E-01
  8.50000000E-01  9.60000000E-01  8.50000000E-01  7.20000000E-01  7.20000000E-01
  8.50000000E-01  8.50000000E-01  8.50000000E-01  8.50000000E-01  8.50000000E-01
  8.50000000E-01  9.60000000E-01  8.50000000E-01  7.20000000E-01  7.20000000E-01
  8.50000000E-01  8.50000000E-01  8.50000000E-01  8.50000000E-01  8.50000000E-01
  8.50000000E-01  9.60000000E-01  8.50000000E-01  7.20000000E-01  7.20000000E-01
  8.50000000E-01  8.50000000E-01  8.50000000E-01  8.50000000E-01  8.50000000E-01
  8.50000000E-01  9.60000000E-01  8.50000000E-01  7.20000000E-01  7.20000000E-01
  8.50000000E-01  8.50000000E-01  8.50000000E-01  8.50000000E-01  8.50000000E-01
  8.50000000E-01  9.60000000E-01  8.50000000E-01  7.20000000E-01  7.20000000E-01
  8.50000000E-01  8.50000000E-01  8.50000000E-01  8.50000000E-01  8.50000000E-01
  8.50000000E-01  9.60000000E-01  8.50000000E-01  7.20000000E-01  7.20000000E-01
  8.50000000E-01  8.50000000E-01  8.50000000E-01  8.50000000E-01  8.50000000E-01
  8.50000000E-01  9.60000000E-01  8.50000000E-01  7.20000000E-01  7.20000000E-01
  8.50000000E-01  8.50000000E-01  8.50000000E-01  8.50000000E-01  8.50000000E-01
  8.50000000E-01  9.60000000E-01  8.50000000E-01  7.20000000E-01  7.20000000E-01
  8.50000000E-01  8.50000000E-01  8.50000000E-01  8.50000000E-01  8.50000000E-01
  8.50000000E-01  9.60000000E-01  8.50000000E-01  7.20000000E-01  7.20000000E-01
  8.50000000E-01  8.50000000E-01  8.50000000E-01  8.50000000E-01  8.50000000E-01
  8.50000000E-01  9.60000000E-01  8.50000000E-01  7.20000000E-01  7.20000000E-01
  8.50000000E-01  8.50000000E-01  8.50000000E-01  8.50000000E-01  8.50000000E-01
  8.50000000E-01  9.60000000E-01  8.50000000E-01  7.20000000E-01  7.20000000E-01
  8.50000000E-01  8.50000000E-01  8.50000000E-01  8.50000000E-01  8.50000000E-01
  8.50000000E-01  9.60000000E-01  8.50000000E-01  7.20000000E-01  7.20000000E-01
  8.50000000E-01  8.50000000E-01  8.50000000E-01  8.50000000E-01  8.50000000E-01
  8.50000000E-01  9.60000000E-01  8.50000000E-01  7.20000000E-01  7.20000000E-01
  8.50000000E-01  8.50000000E-01  8.50000000E-01  8.50000000E-01  8.50000000E-01
  8.50000000E-01  9.60000000E-01  8.50000000E-01  7.20000000E-01  7.20000000E-01
  8.50000000E-01  8.50000000E-01  8.50000000E-01  8.50000000E-01  8.50000000E-01
  8.50000000E-01  9.60000000E-01  8.50000000E-01  7.20000000E-01  7.20000000E-01
  8.50000000E-01  8.50000000E-01  8.50000000E-01  8.50000000E-01  8.50000000E-01
  8.50000000E-01  9.60000000E-01  8.50000000E-01  7.20000000E-01  7.20000000E-01
  8.50000000E-01  8.50000000E-01  8.50000000E-01  8.50000000E-01  8.50000000E-01
  8.50000000E-01  9.60000000E-01  8.50000000E-01  7.20000000E-01  7.20000000E-01
  8.50000000E-01  8.50000000E-01  8.50000000E-01  8.50000000E-01  8.50000000E-01
  8.50000000E-01  9.60000000E-01  8.50000000E-01  7.20000000E-01  7.20000000E-01
  8.50000000E-01  8.50000000E-01  8.50000000E-01  8.50000000E-01  8.50000000E-01
  8.50000000E-01  9.60000000E-01  8.50000000E-01  7.20000000E-01  7.20000000E-01
  8.50000000E-01  8.50000000E-01  8.50000000E-01  8.50000000E-01  8.50000000E-01
  8.50000000E-01  9.60000000E-01  8.50000000E-01  7.20000000E-01  7.20000000E-01
  8.50000000E-01  8.50000000E-01  8.50000000E-01  8.50000000E-01  8.50000000E-01
  8.50000000E-01  9.60000000E-01  8.50000000E-01  7.20000000E-01  7.20000000E-01
  8.50000000E-01  8.50000000E-01  8.50000000E-01  8.50000000E-01  8.50000000E-01
  8.50000000E-01  9.60000000E-01  8.50000000E-01  7.20000000E-01  7.20000000E-01
  8.50000000E-01  8.50000000E-01  8.50000000E-01  8.50000000E-01  8.50000000E-01
  8.50000000E-01  9.60000000E-01  8.50000000E-01  7.20000000E-01  7.20000000E-01
  8.50000000E-01  8.50000000E-01  8.50000000E-01  8.50000000E-01  8.50000000E-01
  8.50000000E-01  9.60000000E-01  8.50000000E-01  7.20000000E-01  7.20000000E-01
  8.50000000E-01  8.50000000E-01  8.50000000E-01  8.50000000E-01  8.50000000E-01
  8.50000000E-01  9.60000000E-01  8.50000000E-01  7.20000000E-01  7.20000000E-01
  8.50000000E-01  8.50000000E-01  8.50000000E-01  8.50000000E-01  8.50000000E-01
  8.50000000E-01  9.60000000E-01  8.50000000E-01  7.20000000E-01  7.20000000E-01
  8.50000000E-01  8.50000000E-01  8.50000000E-01  8.50000000E-01  8.50000000E-01
  8.50000000E-01  9.60000000E-01  8.50000000E-01  7.20000000E-01  7.20000000E-01
  8.50000000E-01  8.50000000E-01  8.50000000E-01  8.50000000E-01  8.50000000E-01
  8.50000000E-01  9.60000000E-01  8.50000000E-01  7.20000000E-01  7.20000000E-01
  8.50000000E-01  8.50000000E-01  8.50000000E-01  8.50000000E-01  8.50000000E-01
  8.50000000E-01  9.60000000E-01  8.50000000E-01  7.20000000E-01  7.20000000E-01
  8.50000000E-01  8.50000000E-01  8.50000000E-01  8.50000000E-01  8.50000000E-01
  8.50000000E-01  9.60000000E-01  8.50000000E-01  7.20000000E-01  7.20000000E-01
  8.50000000E-01  8.50000000E-01  8.50000000E-01  8.50000000E-01  8.50000000E-01
  8.50000000E-01  9.60000000E-01  8.50000000E-01  7.20000000E-01  7.20000000E-01
  8.50000000E-01  8.50000000E-01  8.50000000E-01  8.50000000E-01  8.50000000E-01
  8.50000000E-01  9.60000000E-01  8.50000000E-01  7.20000000E-01  7.20000000E-01
  8.50000000E-01  8.50000000E-01  8.50000000E-01  8.50000000E-01  8.50000000E-01
  8.50000000E-01  9.60000000E-01  8.50000000E-01  7.20000000E-01  7.20000000E-01
  8.50000000E-01  8.50000000E-01  8.50000000E-01  8.50000000E-01  8.50000000E-01
  8.50000000E-01  9.60000000E-01  8.50000000E-01  7.20000000E-01  7.20000000E-01
  8.50000000E-01  8.50000000E-01  8.50000000E-01  8.50000000E-01  8.50000000E-01
  8.50000000E-01  9.60000000E-01  8.50000000E-01  7.20000000E-01  7.20000000E-01
  8.50000000E-01  8.50000000E-01  8.50000000E-01  8.50000000E-01  8.50000000E-01
  8.50000000E-01  9.60000000E-01  8.50000000E-01  7.20000000E-01  7.20000000E-01
  8.50000000E-01  8.50000000E-01  8.50000000E-01  8.50000000E-01  8.50000000E-01
  8.50000000E-01  9.60000000E-01  8.50000000E-01  7.20000000E-01  7.20000000E-01
  8.50000000E-01  8.50000000E-01  8.50000000E-01  8.50000000E-01  8.50000000E-01
  8.50000000E-01  9.60000000E-01  8.50000000E-01  7.20000000E-01  7.20000000E-01
  8.50000000E-01  8.50000000E-01  8.50000000E-01  8.50000000E-01  8.50000000E-01
  8.50000000E-01  9.60000000E-01  8.50000000E-01  7.20000000E-01  7.20000000E-01
  8.50000000E-01  8.50000000E-01  8.50000000E-01  8.50000000E-01  8.50000000E-01
  8.50000000E-01  9.60000000E-01  8.50000000E-01  7.20000000E-01  7.20000000E-01
  8.50000000E-01  8.50000000E-01  8.50000000E-01  8.50000000E-01  8.50000000E-01
  8.50000000E-01  9.60000000E-01  8.50000000E-01  7.20000000E-01  7.20000000E-01
  8.50000000E-01  8.50000000E-01  8.50000000E-01  8.50000000E-01  8.50000000E-01
  8.50000000E-01  9.60000000E-01  8.50000000E-01  7.20000000E-01  7.20000000E-01
  8.50000000E-01  8.50000000E-01  8.50000000E-01  8.50000000E-01  8.50000000E-01
  8.50000000E-01  9.60000000E-01  8.50000000E-01  7.20000000E-01  7.20000000E-01
  8.50000000E-01  8.50000000E-01  8.50000000E-01  8.50000000E-01  8.50000000E-01
  8.50000000E-01  9.60000000E-01  8.50000000E-01  7.20000000E-01  7.20000000E-01
  8.50000000E-01  8.50000000E-01  8.50000000E-01  8.50000000E-01  8.50000000E-01
  8.50000000E-01  9.60000000E-01  8.50000000E-01  7.20000000E-01  7.20000000E-01
  8.50000000E-01  8.50000000E-01  8.50000000E-01  8.50000000E-01  8.50000000E-01
  8.50000000E-01  9.60000000E-01  8.50000000E-01  7.20000000E-01  7.20000000E-01
  8.50000000E-01  8.50000000E-01  8.50000000E-01  8.50000000E-01  8.50000000E-01
  8.50000000E-01  9.60000000E-01  8.50000000E-01  7.20000000E-01  7.20000000E-01
  8.50000000E-01  8.50000000E-01  8.50000000E-01  8.50000000E-01  8.50000000E-01
  8.50000000E-01  9.60000000E-01  8.50000000E-01  7.20000000E-01  7.20000000E-01
  8.50000000E-01  8.50000000E-01  8.50000000E-01  8.50000000E-01  8.50000000E-01
  8.50000000E-01  9.60000000E-01  8.50000000E-01  7.20000000E-01  7.20000000E-01
  8.50000000E-01  8.50000000E-01  8.50000000E-01  8.50000000E-01  8.50000000E-01
  8.50000000E-01  9.60000000E-01  8.50000000E-01  7.20000000E-01  7.20000000E-01
  8.50000000E-01  8.50000000E-01  8.50000000E-01  8.50000000E-01  8.50000000E-01
  8.50000000E-01  9.60000000E-01  8.50000000E-01  7.20000000E-01  7.20000000E-01
  8.50000000E-01  8.50000000E-01  8.50000000E-01  8.50000000E-01  8.50000000E-01
  8.50000000E-01  9.60000000E-01  8.50000000E-01  7.20000000E-01  7.20000000E-01
  8.50000000E-01  8.50000000E-01  8.50000000E-01  8.50000000E-01  8.50000000E-01
  8.50000000E-01  9.60000000E-01  8.50000000E-01  7.20000000E-01  7.20000000E-01
  8.50000000E-01  8.50000000E-01  8.50000000E-01  8.50000000E-01  8.50000000E-01
  8.50000000E-01  9.60000000E-01  8.50000000E-01  7.20000000E-01  7.20000000E-01
  8.50000000E-01  8.50000000E-01  8.50000000E-01  8.50000000E-01  8.50000000E-01
  8.50000000E-01  9.60000000E-01  8.50000000E-01  7.20000000E-01  7.20000000E-01
  8.50000000E-01  8.50000000E-01  8.50000000E-01  8.50000000E-01  8.50000000E-01
  8.50000000E-01  9.60000000E-01  8.50000000E-01  7.20000000E-01  7.20000000E-01
  8.50000000E-01  8.50000000E-01  8.50000000E-01  8.50000000E-01  8.50000000E-01
  8.50000000E-01  9.60000000E-01  8.50000000E-01  7.20000000E-01  7.20000000E-01
  8.50000000E-01  8.50000000E-01  8.50000000E-01  8.50000000E-01  8.50000000E-01
  8.50000000E-01  9.60000000E-01  8.50000000E-01  7.20000000E-01  7.20000000E-01
  8.50000000E-01  8.50000000E-01  8.50000000E-01  8.50000000E-01  8.50000000E-01
  8.50000000E-01  9.60000000E-01  8.50000000E-01  7.20000000E-01  7.20000000E-01
  8.50000000E-01  8.50000000E-01  8.50000000E-01  8.50000000E-01  8.50000000E-01
  8.50000000E-01  9.60000000E-01  8.50000000E-01  7.20000000E-01  7.20000000E-01
  8.50000000E-01  8.50000000E-01  8.50000000E-01  8.50000000E-01  8.50000000E-01
  8.50000000E-01  9.60000000E-01  8.50000000E-01  7.20000000E-01  7.20000000E-01
  8.50000000E-01  8.50000000E-01  8.50000000E-01  8.50000000E-01  8.50000000E-01
  8.50000000E-01  9.60000000E-01  8.50000000E-01  7.20000000E-01  7.20000000E-01
  8.50000000E-01  8.50000000E-01  8.50000000E-01  8.50000000E-01  8.50000000E-01
  8.50000000E-01  9.60000000E-01  8.50000000E-01  7.20000000E-01  7.20000000E-01
  8.50000000E-01  8.50000000E-01  8.50000000E-01  8.50000000E-01  8.50000000E-01
  8.50000000E-01  9.60000000E-01  8.50000000E-01  7.20000000E-01  7.20000000E-01
  8.50000000E-01  8.50000000E-01  8.50000000E-01  8.50000000E-01  8.50000000E-01
  8.50000000E-01  9.60000000E-01  8.50000000E-01  7.20000000E-01  7.20000000E-01
  8.50000000E-01  8.50000000E-01  8.50000000E-01  8.50000000E-01  8.50000000E-01
  8.50000000E-01  9.60000000E-01  8.50000000E-01  7.20000000E-01  7.20000000E-01
  8.50000000E-01  8.50000000E-01  8.50000000E-01  8.50000000E-01  8.50000000E-01
  8.50000000E-01  9.60000000E-01  8.50000000E-01  7.20000000E-01  7.20000000E-01
  8.50000000E-01  8.50000000E-01  8.50000000E-01  8.50000000E-01  8.50000000E-01
  8.50000000E-01  9.60000000E-01  8.50000000E-01  7.20000000E-01  7.20000000E-01
  8.50000000E-01  8.50000000E-01  8.50000000E-01  8.50000000E-01  8.50000000E-01
  8.50000000E-01  9.60000000E-01  8.50000000E-01  7.20000000E-01  7.20000000E-01
  8.50000000E-01  8.50000000E-01  8.50000000E-01  8.50000000E-01  8.50000000E-01
  8.50000000E-01  9.60000000E-01  8.50000000E-01  7.20000000E-01  7.20000000E-01
  8.50000000E-01  8.50000000E-01  8.50000000E-01  8.50000000E-01  8.50000000E-01
  8.50000000E-01  9.60000000E-01  8.50000000E-01  7.20000000E-01  7.20000000E-01
  8.50000000E-01  8.50000000E-01  8.50000000E-01  8.50000000E-01  8.50000000E-01
  8.50000000E-01  9.60000000E-01  8.50000000E-01  7.20000000E-01  7.20000000E-01
  8.50000000E-01  8.50000000E-01  8.50000000E-01  8.50000000E-01  8.50000000E-01
  8.50000000E-01  9.60000000E-01  8.50000000E-01  7.20000000E-01  7.20000000E-01
  8.50000000E-01  8.50000000E-01  8.50000000E-01  8.50000000E-01  8.50000000E-01
  8.50000000E-01  9.60000000E-01  8.50000000E-01  7.20000000E-01  7.20000000E-01
  8.50000000E-01  8.50000000E-01  8.50000000E-01  8.50000000E-01  8.50000000E-01
  8.50000000E-01  9.60000000E-01  8.50000000E-01  7.20000000E-01  7.20000000E-01
  8.50000000E-01  8.50000000E-01  8.50000000E-01  8.50000000E-01  8.50000000E-01
  8.50000000E-01  9.60000000E-01  8.50000000E-01  7.20000000E-01  7.20000000E-01
  8.50000000E-01  8.50000000E-01  8.50000000E-01  8.50000000E-01  8.50000000E-01
  8.50000000E-01  9.60000000E-01  8.50000000E-01  7.20000000E-01  7.20000000E-01
  8.50000000E-01  8.50000000E-01  8.50000000E-01  8.50000000E-01  8.50000000E-01
  8.50000000E-01  9.60000000E-01  8.50000000E-01  7.20000000E-01  7.20000000E-01
  8.50000000E-01  8.50000000E-01  8.50000000E-01  8.50000000E-01  8.50000000E-01
  8.50000000E-01  9.60000000E-01  8.50000000E-01  7.20000000E-01  7.20000000E-01
  8.50000000E-01  8.50000000E-01  8.50000000E-01  8.50000000E-01  8.50000000E-01
  8.50000000E-01  9.60000000E-01  8.50000000E-01  7.20000000E-01  7.20000000E-01
  8.50000000E-01  8.50000000E-01  8.50000000E-01  8.50000000E-01  8.50000000E-01
  8.50000000E-01  9.60000000E-01  8.50000000E-01  7.20000000E-01  7.20000000E-01
  8.50000000E-01  8.50000000E-01  8.50000000E-01  8.50000000E-01  8.50000000E-01
  8.50000000E-01  9.60000000E-01  8.50000000E-01  7.20000000E-01  7.20000000E-01
  8.50000000E-01  8.50000000E-01  8.50000000E-01  8.50000000E-01  8.50000000E-01
  8.50000000E-01  9.60000000E-01  8.50000000E-01  7.20000000E-01  7.20000000E-01
  8.50000000E-01  8.50000000E-01  8.50000000E-01  8.50000000E-01  8.50000000E-01
  8.50000000E-01  9.60000000E-01  8.50000000E-01  7.20000000E-01  7.20000000E-01
  8.50000000E-01  8.50000000E-01  8.50000000E-01  8.50000000E-01  8.50000000E-01
  8.50000000E-01  9.60000000E-01  8.50000000E-01  7.20000000E-01  7.20000000E-01
  8.50000000E-01  8.50000000E-01  8.50000000E-01  8.50000000E-01  8.50000000E-01
  8.50000000E-01  9.60000000E-01  8.50000000E-01  7.20000000E-01  7.20000000E-01
  8.50000000E-01  8.50000000E-01  8.50000000E-01  8.50000000E-01  8.50000000E-01
  8.50000000E-01  9.60000000E-01  8.50000000E-01  7.20000000E-01  7.20000000E-01
  8.50000000E-01  8.50000000E-01  8.50000000E-01  8.50000000E-01  8.50000000E-01
  8.50000000E-01  9.60000000E-01  8.50000000E-01  7.20000000E-01  7.20000000E-01
  8.50000000E-01  8.50000000E-01  8.50000000E-01  8.50000000E-01  8.50000000E-01
  8.50000000E-01  9.60000000E-01  8.50000000E-01  7.20000000E-01  7.20000000E-01
  8.50000000E-01  8.50000000E-01  8.50000000E-01  8.50000000E-01  8.50000000E-01
  8.50000000E-01  9.60000000E-01  8.50000000E-01  7.20000000E-01  7.20000000E-01
  8.50000000E-01  8.50000000E-01  8.50000000E-01  8.50000000E-01  8.50000000E-01
  8.50000000E-01  9.60000000E-01  8.50000000E-01  7.20000000E-01  7.20000000E-01
  8.50000000E-01  8.50000000E-01  8.50000000E-01  8.50000000E-01  8.50000000E-01
  8.50000000E-01  9.60000000E-01  8.50000000E-01  7.20000000E-01  7.20000000E-01
  8.50000000E-01  8.50000000E-01  8.50000000E-01  8.50000000E-01  8.50000000E-01
  8.50000000E-01  9.60000000E-01  8.50000000E-01  7.20000000E-01  7.20000000E-01
  8.50000000E-01  8.50000000E-01  8.50000000E-01  8.50000000E-01  8.50000000E-01
  8.50000000E-01  9.60000000E-01  8.50000000E-01  7.20000000E-01  7.20000000E-01
  8.50000000E-01  8.50000000E-01  8.50000000E-01  8.50000000E-01  8.50000000E-01
  8.50000000E-01  9.60000000E-01  8.50000000E-01  7.20000000E-01  7.20000000E-01
  8.50000000E-01  8.50000000E-01  8.50000000E-01  8.50000000E-01  8.50000000E-01
  8.50000000E-01  9.60000000E-01  8.50000000E-01  7.20000000E-01  7.20000000E-01
  8.50000000E-01  8.50000000E-01  8.50000000E-01  8.50000000E-01  8.50000000E-01
  8.50000000E-01  9.60000000E-01  8.50000000E-01  7.20000000E-01  7.20000000E-01
  8.50000000E-01  8.50000000E-01  8.50000000E-01  8.50000000E-01  8.50000000E-01
  8.50000000E-01  9.60000000E-01  8.50000000E-01  7.20000000E-01  7.20000000E-01
  8.50000000E-01  8.50000000E-01  8.50000000E-01  8.50000000E-01  8.50000000E-01
  8.50000000E-01  9.60000000E-01  8.50000000E-01  7.20000000E-01  7.20000000E-01
  8.50000000E-01  8.50000000E-01  8.50000000E-01  8.50000000E-01  8.50000000E-01
  8.50000000E-01  9.60000000E-01  8.50000000E-01  7.20000000E-01  7.20000000E-01
  8.50000000E-01  8.50000000E-01  8.50000000E-01  8.50000000E-01  8.50000000E-01
  8.50000000E-01  9.60000000E-01  8.50000000E-01  7.20000000E-01  7.20000000E-01
  8.50000000E-01  8.50000000E-01  8.50000000E-01  8.50000000E-01  8.50000000E-01
  8.50000000E-01  9.60000000E-01  8.50000000E-01  7.20000000E-01  7.20000000E-01
  8.50000000E-01  8.50000000E-01  8.50000000E-01  8.50000000E-01  8.50000000E-01
  8.50000000E-01  9.60000000E-01  8.50000000E-01  7.20000000E-01  7.20000000E-01
  8.50000000E-01  8.50000000E-01  8.50000000E-01  8.50000000E-01  8.50000000E-01
  8.50000000E-01  9.60000000E-01  8.50000000E-01  7.20000000E-01  7.20000000E-01
  8.50000000E-01  8.50000000E-01  8.50000000E-01  8.50000000E-01  8.50000000E-01
  8.50000000E-01  9.60000000E-01  8.50000000E-01  7.20000000E-01  7.20000000E-01
  8.50000000E-01  8.50000000E-01  8.50000000E-01  8.50000000E-01  8.50000000E-01
  8.50000000E-01  9.60000000E-01  8.50000000E-01  7.20000000E-01  7.20000000E-01
  8.50000000E-01  8.50000000E-01  8.50000000E-01  8.50000000E-01  8.50000000E-01
  8.50000000E-01  9.60000000E-01  8.50000000E-01  7.20000000E-01  7.20000000E-01
  8.50000000E-01  8.50000000E-01  8.50000000E-01  8.50000000E-01  8.50000000E-01
  8.50000000E-01  9.60000000E-01  8.50000000E-01  7.20000000E-01  7.20000000E-01
  8.50000000E-01  8.50000000E-01  8.50000000E-01  8.50000000E-01  8.50000000E-01
  8.50000000E-01  9.60000000E-01  8.50000000E-01  7.20000000E-01  7.20000000E-01
  8.50000000E-01  8.50000000E-01  8.50000000E-01  8.50000000E-01  8.50000000E-01
  8.50000000E-01  9.60000000E-01  8.50000000E-01  7.20000000E-01  7.20000000E-01
  8.50000000E-01  8.50000000E-01  8.50000000E-01  8.50000000E-01  8.50000000E-01
  8.50000000E-01  9.60000000E-01  8.50000000E-01  7.20000000E-01  7.20000000E-01
  8.50000000E-01  8.50000000E-01  8.50000000E-01  8.50000000E-01  8.50000000E-01
  8.50000000E-01  9.60000000E-01  8.50000000E-01  7.20000000E-01  7.20000000E-01
  8.50000000E-01  8.50000000E-01  8.50000000E-01  8.50000000E-01  8.50000000E-01
  8.50000000E-01  9.60000000E-01  8.50000000E-01  7.20000000E-01  7.20000000E-01
  8.50000000E-01  8.50000000E-01  8.50000000E-01  8.50000000E-01  8.50000000E-01
  8.50000000E-01  9.60000000E-01  8.50000000E-01  7.20000000E-01  7.20000000E-01
  8.50000000E-01  8.50000000E-01  8.50000000E-01  8.50000000E-01  8.50000000E-01
  8.50000000E-01  9.60000000E-01  8.50000000E-01  7.20000000E-01  7.20000000E-01
  8.50000000E-01  8.50000000E-01  8.50000000E-01  8.50000000E-01  8.50000000E-01
  8.50000000E-01  9.60000000E-01  8.50000000E-01  7.20000000E-01  7.20000000E-01
  8.50000000E-01  8.50000000E-01  8.50000000E-01  8.50000000E-01  8.50000000E-01
  8.50000000E-01  9.60000000E-01  8.50000000E-01  7.20000000E-01  7.20000000E-01
  8.50000000E-01  8.50000000E-01  8.50000000E-01  8.50000000E-01  8.50000000E-01
  8.50000000E-01  9.60000000E-01  8.50000000E-01  7.20000000E-01  7.20000000E-01
  8.50000000E-01  8.50000000E-01  8.50000000E-01  8.50000000E-01  8.50000000E-01
  8.50000000E-01  9.60000000E-01  8.50000000E-01  7.20000000E-01  7.20000000E-01
  8.50000000E-01  8.50000000E-01  8.50000000E-01  8.50000000E-01  8.50000000E-01
  8.50000000E-01  9.60000000E-01  8.50000000E-01  7.20000000E-01  7.20000000E-01
  8.50000000E-01  8.50000000E-01  8.50000000E-01  8.50000000E-01  8.50000000E-01
  8.50000000E-01  9.60000000E-01  8.50000000E-01  7.20000000E-01  7.20000000E-01
  8.50000000E-01  8.50000000E-01  8.50000000E-01  8.50000000E-01  8.50000000E-01
  8.50000000E-01  9.60000000E-01  8.50000000E-01  7.20000000E-01  7.20000000E-01
  8.50000000E-01  8.50000000E-01  8.50000000E-01  8.50000000E-01  8.50000000E-01
  8.50000000E-01  9.60000000E-01  8.50000000E-01  7.20000000E-01  7.20000000E-01
  8.50000000E-01  8.50000000E-01  8.50000000E-01  8.50000000E-01  8.50000000E-01
  8.50000000E-01  9.60000000E-01  8.50000000E-01  7.20000000E-01  7.20000000E-01
  8.50000000E-01  8.50000000E-01  8.50000000E-01  8.50000000E-01  8.50000000E-01
  8.50000000E-01  9.60000000E-01  8.50000000E-01  7.20000000E-01  7.20000000E-01
  8.50000000E-01  8.50000000E-01  8.50000000E-01  8.50000000E-01  8.50000000E-01
  8.50000000E-01  9.60000000E-01  8.50000000E-01  7.20000000E-01  7.20000000E-01
  8.50000000E-01  8.50000000E-01  8.50000000E-01  8.50000000E-01  8.50000000E-01
  8.50000000E-01  9.60000000E-01  8.50000000E-01  7.20000000E-01  7.20000000E-01
  8.50000000E-01  8.50000000E-01  8.50000000E-01  8.50000000E-01  8.50000000E-01
  8.50000000E-01  9.60000000E-01  8.50000000E-01  7.20000000E-01  7.20000000E-01
  8.50000000E-01  8.50000000E-01  8.50000000E-01  8.50000000E-01  8.50000000E-01
  8.50000000E-01  9.60000000E-01  8.50000000E-01  7.20000000E-01  7.20000000E-01
  8.50000000E-01  8.50000000E-01  8.50000000E-01  8.50000000E-01  8.50000000E-01
  8.50000000E-01  9.60000000E-01  8.50000000E-01  7.20000000E-01  7.20000000E-01
  8.50000000E-01  8.50000000E-01  8.50000000E-01  8.50000000E-01  8.50000000E-01
  8.50000000E-01  9.60000000E-01  8.50000000E-01  7.20000000E-01  7.20000000E-01
  8.50000000E-01  8.50000000E-01  8.50000000E-01  8.50000000E-01  8.50000000E-01
  8.50000000E-01  9.60000000E-01  8.50000000E-01  7.20000000E-01  7.20000000E-01
  8.50000000E-01  8.50000000E-01  8.50000000E-01  8.50000000E-01  8.50000000E-01
  8.50000000E-01  9.60000000E-01  8.50000000E-01  7.20000000E-01  7.20000000E-01
  8.50000000E-01  8.50000000E-01  8.50000000E-01  8.50000000E-01  8.50000000E-01
  8.50000000E-01  9.60000000E-01  8.50000000E-01  7.20000000E-01  7.20000000E-01
  8.50000000E-01  8.50000000E-01  8.50000000E-01  8.50000000E-01  8.50000000E-01
  8.50000000E-01  9.60000000E-01  8.50000000E-01  7.20000000E-01  7.20000000E-01
  8.50000000E-01  8.50000000E-01  8.50000000E-01  8.50000000E-01  8.50000000E-01
  8.50000000E-01  9.60000000E-01  8.50000000E-01  7.20000000E-01  7.20000000E-01
  8.50000000E-01  8.50000000E-01  8.50000000E-01  8.50000000E-01  8.50000000E-01
  8.50000000E-01  9.60000000E-01  8.50000000E-01  7.20000000E-01  7.20000000E-01
  8.50000000E-01  8.50000000E-01  8.50000000E-01  8.50000000E-01  8.50000000E-01
  8.50000000E-01  9.60000000E-01  8.50000000E-01  7.20000000E-01  7.20000000E-01
  8.50000000E-01  8.50000000E-01  8.50000000E-01  8.50000000E-01  8.50000000E-01
  8.50000000E-01  9.60000000E-01  8.50000000E-01  7.20000000E-01  7.20000000E-01
  8.50000000E-01  8.50000000E-01  8.50000000E-01  8.50000000E-01  8.50000000E-01
  8.50000000E-01  9.60000000E-01  8.50000000E-01  7.20000000E-01  7.20000000E-01
  8.50000000E-01  8.50000000E-01  8.50000000E-01  8.50000000E-01  8.50000000E-01
  8.50000000E-01  9.60000000E-01  8.50000000E-01  7.20000000E-01  7.20000000E-01
  8.50000000E-01  8.50000000E-01  8.50000000E-01  8.50000000E-01  8.50000000E-01
  8.50000000E-01  9.60000000E-01  8.50000000E-01  7.20000000E-01  7.20000000E-01
  8.50000000E-01  8.50000000E-01  8.50000000E-01  8.50000000E-01  8.50000000E-01
  8.50000000E-01  9.60000000E-01  8.50000000E-01  7.20000000E-01  7.20000000E-01
  8.50000000E-01  8.50000000E-01  8.50000000E-01  8.50000000E-01  8.50000000E-01
  8.50000000E-01  9.60000000E-01  8.50000000E-01  7.20000000E-01  7.20000000E-01
  8.50000000E-01  8.50000000E-01  8.50000000E-01  8.50000000E-01  8.50000000E-01
  8.50000000E-01  9.60000000E-01  8.50000000E-01  7.20000000E-01  7.20000000E-01
  8.50000000E-01  8.50000000E-01  8.50000000E-01  8.50000000E-01  8.50000000E-01
  8.50000000E-01  9.60000000E-01  8.50000000E-01  7.20000000E-01  7.20000000E-01
  8.50000000E-01  8.50000000E-01  8.50000000E-01  8.50000000E-01  8.50000000E-01
  8.50000000E-01  9.60000000E-01  8.50000000E-01  7.20000000E-01  7.20000000E-01
  8.50000000E-01  8.50000000E-01  8.50000000E-01  8.50000000E-01  8.50000000E-01
  8.50000000E-01  9.60000000E-01  8.50000000E-01  7.20000000E-01  7.20000000E-01
  8.50000000E-01  8.50000000E-01  8.50000000E-01  8.50000000E-01  8.50000000E-01
  8.50000000E-01  9.60000000E-01  8.50000000E-01  7.20000000E-01  7.20000000E-01
  8.50000000E-01  8.50000000E-01  8.50000000E-01  8.50000000E-01  8.50000000E-01
  8.50000000E-01  9.60000000E-01  8.50000000E-01  7.20000000E-01  7.20000000E-01
  8.50000000E-01  8.50000000E-01  8.50000000E-01  8.50000000E-01  8.50000000E-01
  8.50000000E-01  9.60000000E-01  8.50000000E-01  7.20000000E-01  7.20000000E-01
  8.50000000E-01  8.50000000E-01  8.50000000E-01  8.50000000E-01  8.50000000E-01
  8.50000000E-01  9.60000000E-01  8.50000000E-01  7.20000000E-01  7.20000000E-01
  8.50000000E-01  8.50000000E-01  8.50000000E-01  8.50000000E-01  8.50000000E-01
  8.50000000E-01  9.60000000E-01  8.50000000E-01  7.20000000E-01  7.20000000E-01
  8.50000000E-01  8.50000000E-01  8.50000000E-01  8.50000000E-01  8.50000000E-01
  8.50000000E-01  9.60000000E-01  8.50000000E-01  7.20000000E-01  7.20000000E-01
  8.50000000E-01  8.50000000E-01  8.50000000E-01  8.50000000E-01  8.50000000E-01
  8.50000000E-01  9.60000000E-01  8.50000000E-01  7.20000000E-01  7.20000000E-01
  8.50000000E-01  8.50000000E-01  8.50000000E-01  8.50000000E-01  8.50000000E-01
  8.50000000E-01  9.60000000E-01  8.50000000E-01  7.20000000E-01  7.20000000E-01
  8.50000000E-01  8.50000000E-01  8.50000000E-01  8.50000000E-01  8.50000000E-01
  8.50000000E-01  9.60000000E-01  8.50000000E-01  7.20000000E-01  7.20000000E-01
  8.50000000E-01  8.50000000E-01  8.50000000E-01  8.50000000E-01  8.50000000E-01
  8.50000000E-01  9.60000000E-01  8.50000000E-01  7.20000000E-01  7.20000000E-01
  8.50000000E-01  8.50000000E-01  8.50000000E-01  8.50000000E-01  8.50000000E-01
  8.50000000E-01  9.60000000E-01  8.50000000E-01  7.20000000E-01  7.20000000E-01
  8.50000000E-01  8.50000000E-01  8.50000000E-01  8.50000000E-01  8.50000000E-01
  8.50000000E-01  9.60000000E-01  8.50000000E-01  7.20000000E-01  7.20000000E-01
  8.50000000E-01  8.50000000E-01  8.50000000E-01  8.50000000E-01  8.50000000E-01
  8.50000000E-01  9.60000000E-01  8.50000000E-01  7.20000000E-01  7.20000000E-01
  8.50000000E-01  8.50000000E-01  8.50000000E-01  8.50000000E-01  8.50000000E-01
  8.50000000E-01  9.60000000E-01  8.50000000E-01  7.20000000E-01  7.20000000E-01
  8.50000000E-01  8.50000000E-01  8.50000000E-01  8.50000000E-01  8.50000000E-01
  8.50000000E-01  9.60000000E-01  8.50000000E-01  7.20000000E-01  7.20000000E-01
  8.50000000E-01  8.50000000E-01  8.50000000E-01  8.50000000E-01  8.50000000E-01
  8.50000000E-01  9.60000000E-01  8.50000000E-01  7.20000000E-01  7.20000000E-01
  8.50000000E-01  8.50000000E-01  8.50000000E-01  8.50000000E-01  8.50000000E-01
  8.50000000E-01  9.60000000E-01  8.50000000E-01  7.20000000E-01  7.20000000E-01
  8.50000000E-01  8.50000000E-01  8.50000000E-01  8.50000000E-01  8.50000000E-01
  8.50000000E-01  9.60000000E-01  8.50000000E-01  7.20000000E-01  7.20000000E-01
  8.50000000E-01  8.50000000E-01  8.50000000E-01  8.50000000E-01  8.50000000E-01
  8.50000000E-01  9.60000000E-01  8.50000000E-01  7.20000000E-01  7.20000000E-01
  8.50000000E-01  8.50000000E-01  8.50000000E-01  8.50000000E-01  8.50000000E-01
  8.50000000E-01  9.60000000E-01  8.50000000E-01  7.20000000E-01  7.20000000E-01
  8.50000000E-01  8.50000000E-01  8.50000000E-01  8.50000000E-01  8.50000000E-01
  8.50000000E-01  9.60000000E-01  8.50000000E-01  7.20000000E-01  7.20000000E-01
  8.50000000E-01  8.50000000E-01  8.50000000E-01  8.50000000E-01  8.50000000E-01
  8.50000000E-01  9.60000000E-01  8.50000000E-01  7.20000000E-01  7.20000000E-01
  8.50000000E-01  8.50000000E-01  8.50000000E-01  8.50000000E-01  8.50000000E-01
  8.50000000E-01  9.60000000E-01  8.50000000E-01  7.20000000E-01  7.20000000E-01
  8.50000000E-01  8.50000000E-01  8.50000000E-01  8.50000000E-01  8.50000000E-01
  8.50000000E-01  9.60000000E-01  8.50000000E-01  7.20000000E-01  7.20000000E-01
  8.50000000E-01  8.50000000E-01  8.50000000E-01  8.50000000E-01  8.50000000E-01
  8.50000000E-01  9.60000000E-01  8.50000000E-01  7.20000000E-01  7.20000000E-01
  8.50000000E-01  8.50000000E-01  8.50000000E-01  8.50000000E-01  8.50000000E-01
  8.50000000E-01  9.60000000E-01  8.50000000E-01  7.20000000E-01  7.20000000E-01
  8.50000000E-01  8.50000000E-01  8.50000000E-01  8.50000000E-01  8.50000000E-01
  8.50000000E-01  9.60000000E-01  8.50000000E-01  7.20000000E-01  7.20000000E-01
  8.50000000E-01  8.50000000E-01  8.50000000E-01  8.50000000E-01  8.50000000E-01
  8.50000000E-01  9.60000000E-01  8.50000000E-01  7.20000000E-01  7.20000000E-01
  8.50000000E-01  8.50000000E-01  8.50000000E-01  8.50000000E-01  8.50000000E-01
  8.50000000E-01  9.60000000E-01  8.50000000E-01  7.20000000E-01  7.20000000E-01
  8.50000000E-01  8.50000000E-01  8.50000000E-01  8.50000000E-01  8.50000000E-01
  8.50000000E-01  9.60000000E-01  8.50000000E-01  7.20000000E-01  7.20000000E-01
  8.50000000E-01  8.50000000E-01  8.50000000E-01  8.50000000E-01  8.50000000E-01
  8.50000000E-01  9.60000000E-01  8.50000000E-01  7.20000000E-01  7.20000000E-01
  8.50000000E-01  8.50000000E-01  8.50000000E-01  8.50000000E-01  8.50000000E-01
  8.50000000E-01  9.60000000E-01  8.50000000E-01  7.20000000E-01  7.20000000E-01
  8.50000000E-01  8.50000000E-01  8.50000000E-01  8.50000000E-01  8.50000000E-01
  8.50000000E-01  9.60000000E-01  8.50000000E-01  7.20000000E-01  7.20000000E-01
  8.50000000E-01  8.50000000E-01  8.50000000E-01  8.50000000E-01  8.50000000E-01
  8.50000000E-01  9.60000000E-01  8.50000000E-01  7.20000000E-01  7.20000000E-01
  8.50000000E-01  8.50000000E-01  8.50000000E-01  8.50000000E-01  8.50000000E-01
  8.50000000E-01  9.60000000E-01  8.50000000E-01  7.20000000E-01  7.20000000E-01
  8.50000000E-01  8.50000000E-01  8.50000000E-01  8.50000000E-01  8.50000000E-01
  8.50000000E-01  9.60000000E-01  8.50000000E-01  7.20000000E-01  7.20000000E-01
  8.50000000E-01  8.50000000E-01  8.50000000E-01  8.50000000E-01  8.50000000E-01
  8.50000000E-01  9.60000000E-01  8.50000000E-01  7.20000000E-01  7.20000000E-01
  8.50000000E-01  8.50000000E-01  8.50000000E-01  8.50000000E-01  8.50000000E-01
  8.50000000E-01  9.60000000E-01  8.50000000E-01  7.20000000E-01  7.20000000E-01
  8.50000000E-01  8.50000000E-01  8.50000000E-01  8.50000000E-01  8.50000000E-01
  8.50000000E-01  9.60000000E-01  8.50000000E-01  7.20000000E-01  7.20000000E-01
  8.50000000E-01  8.50000000E-01  8.50000000E-01  8.50000000E-01  8.50000000E-01
  8.50000000E-01  9.60000000E-01  8.50000000E-01  7.20000000E-01  7.20000000E-01
  8.50000000E-01  8.50000000E-01  8.50000000E-01  8.50000000E-01  8.50000000E-01
  8.50000000E-01  9.60000000E-01  8.50000000E-01  7.20000000E-01  7.20000000E-01
  8.50000000E-01  8.50000000E-01  8.50000000E-01  8.50000000E-01  8.50000000E-01
  8.50000000E-01  9.60000000E-01  8.50000000E-01  7.20000000E-01  7.20000000E-01
  8.50000000E-01  8.50000000E-01  8.50000000E-01  8.50000000E-01  8.50000000E-01
  8.50000000E-01  9.60000000E-01  8.50000000E-01  7.20000000E-01  7.20000000E-01
  8.50000000E-01  8.50000000E-01  8.50000000E-01  8.50000000E-01  8.50000000E-01
  8.50000000E-01  9.60000000E-01  8.50000000E-01  7.20000000E-01  7.20000000E-01
  8.50000000E-01  8.50000000E-01  8.50000000E-01  8.50000000E-01  8.50000000E-01
  8.50000000E-01  9.60000000E-01  8.50000000E-01  7.20000000E-01  7.20000000E-01
  8.50000000E-01  8.50000000E-01  8.50000000E-01  8.50000000E-01  8.50000000E-01
  8.50000000E-01  9.60000000E-01  8.50000000E-01  7.20000000E-01  7.20000000E-01
  8.50000000E-01  8.50000000E-01  8.50000000E-01  8.50000000E-01  8.50000000E-01
  8.50000000E-01  9.60000000E-01  8.50000000E-01  7.20000000E-01  7.20000000E-01
  8.50000000E-01  8.50000000E-01  8.50000000E-01  8.50000000E-01  8.50000000E-01
  8.50000000E-01  9.60000000E-01  8.50000000E-01  7.20000000E-01  7.20000000E-01
  8.50000000E-01  8.50000000E-01  8.50000000E-01  8.50000000E-01  8.50000000E-01
  8.50000000E-01  9.60000000E-01  8.50000000E-01  7.20000000E-01  7.20000000E-01
  8.50000000E-01  8.50000000E-01  8.50000000E-01  8.50000000E-01  8.50000000E-01
  8.50000000E-01  9.60000000E-01  8.50000000E-01  7.20000000E-01  7.20000000E-01
  8.50000000E-01  8.50000000E-01  8.50000000E-01  8.50000000E-01  8.50000000E-01
  8.50000000E-01  9.60000000E-01  8.50000000E-01  7.20000000E-01  7.20000000E-01
  8.50000000E-01  8.50000000E-01  8.50000000E-01  8.50000000E-01  8.50000000E-01
  8.50000000E-01  9.60000000E-01  8.50000000E-01  7.20000000E-01  7.20000000E-01
  8.50000000E-01  8.50000000E-01  8.50000000E-01  8.50000000E-01  8.50000000E-01
  8.50000000E-01  9.60000000E-01  8.50000000E-01  7.20000000E-01  7.20000000E-01
  8.50000000E-01  8.50000000E-01  8.50000000E-01  8.50000000E-01  8.50000000E-01
  8.50000000E-01  9.60000000E-01  8.50000000E-01  7.20000000E-01  7.20000000E-01
  8.50000000E-01  8.50000000E-01  8.50000000E-01  8.50000000E-01  8.50000000E-01
  8.50000000E-01  9.60000000E-01  8.50000000E-01  7.20000000E-01  7.20000000E-01
  8.50000000E-01  8.50000000E-01  8.50000000E-01  8.50000000E-01  8.50000000E-01
  8.50000000E-01  9.60000000E-01  8.50000000E-01  7.20000000E-01  7.20000000E-01
  8.50000000E-01  8.50000000E-01  8.50000000E-01  8.50000000E-01  8.50000000E-01
  8.50000000E-01  9.60000000E-01  8.50000000E-01  7.20000000E-01  7.20000000E-01
  8.50000000E-01  8.50000000E-01  8.50000000E-01  8.50000000E-01  8.50000000E-01
  8.50000000E-01  9.60000000E-01  8.50000000E-01  7.20000000E-01  7.20000000E-01
  8.50000000E-01  8.50000000E-01  8.50000000E-01  8.50000000E-01  8.50000000E-01
  8.50000000E-01  9.60000000E-01  8.50000000E-01  7.20000000E-01  7.20000000E-01
  8.50000000E-01  8.50000000E-01  8.50000000E-01  8.50000000E-01  8.50000000E-01
  8.50000000E-01  9.60000000E-01  8.50000000E-01  7.20000000E-01  7.20000000E-01
  8.50000000E-01  8.50000000E-01  8.50000000E-01  8.50000000E-01  8.50000000E-01
  8.50000000E-01  9.60000000E-01  8.50000000E-01  7.20000000E-01  7.20000000E-01
  8.50000000E-01  8.50000000E-01  8.50000000E-01  8.50000000E-01  8.50000000E-01
  8.50000000E-01  9.60000000E-01  8.50000000E-01  7.20000000E-01  7.20000000E-01
  8.50000000E-01  8.50000000E-01  8.50000000E-01  8.50000000E-01  8.50000000E-01
  8.50000000E-01  9.60000000E-01  8.50000000E-01  7.20000000E-01  7.20000000E-01
  8.50000000E-01  8.50000000E-01  8.50000000E-01  8.50000000E-01  8.50000000E-01
  8.50000000E-01  9.60000000E-01  8.50000000E-01  7.20000000E-01  7.20000000E-01
  8.50000000E-01  8.50000000E-01  8.50000000E-01  8.50000000E-01  8.50000000E-01
  8.50000000E-01  9.60000000E-01  8.50000000E-01  7.20000000E-01  7.20000000E-01
  8.50000000E-01  8.50000000E-01  8.50000000E-01  8.50000000E-01  8.50000000E-01
  8.50000000E-01  9.60000000E-01  8.50000000E-01  7.20000000E-01  7.20000000E-01
  8.50000000E-01  8.50000000E-01  8.50000000E-01  8.50000000E-01  8.50000000E-01
  8.50000000E-01  9.60000000E-01  8.50000000E-01  7.20000000E-01  7.20000000E-01
  8.50000000E-01  8.50000000E-01  8.50000000E-01  8.50000000E-01  8.50000000E-01
  8.50000000E-01  9.60000000E-01  8.50000000E-01  7.20000000E-01  7.20000000E-01
  8.50000000E-01  8.50000000E-01  8.50000000E-01  8.50000000E-01  8.50000000E-01
  8.50000000E-01  9.60000000E-01  8.50000000E-01  7.20000000E-01  7.20000000E-01
  8.50000000E-01  8.50000000E-01  8.50000000E-01  8.50000000E-01  8.50000000E-01
  8.50000000E-01  9.60000000E-01  8.50000000E-01  7.20000000E-01  7.20000000E-01
  8.50000000E-01  8.50000000E-01  8.50000000E-01  8.50000000E-01  8.50000000E-01
  8.50000000E-01  9.60000000E-01  8.50000000E-01  7.20000000E-01  7.20000000E-01
  8.50000000E-01  8.50000000E-01  8.50000000E-01  8.50000000E-01  8.50000000E-01
  8.50000000E-01  9.60000000E-01  8.50000000E-01  7.20000000E-01  7.20000000E-01
  8.50000000E-01  8.50000000E-01  8.50000000E-01  8.50000000E-01  8.50000000E-01
  8.50000000E-01  9.60000000E-01  8.50000000E-01  7.20000000E-01  7.20000000E-01
  8.50000000E-01  8.50000000E-01  8.50000000E-01  8.50000000E-01  8.50000000E-01
  8.50000000E-01  9.60000000E-01  8.50000000E-01  7.20000000E-01  7.20000000E-01
  8.50000000E-01  8.50000000E-01  8.50000000E-01  8.50000000E-01  8.50000000E-01
  8.50000000E-01  9.60000000E-01  8.50000000E-01  7.20000000E-01  7.20000000E-01
  8.50000000E-01  8.50000000E-01  8.50000000E-01  8.50000000E-01  8.50000000E-01
  8.50000000E-01  9.60000000E-01  8.50000000E-01  7.20000000E-01  7.20000000E-01
  8.50000000E-01  8.50000000E-01  8.50000000E-01  8.50000000E-01  8.50000000E-01
  8.50000000E-01  9.60000000E-01  8.50000000E-01  7.20000000E-01  7.20000000E-01
  8.50000000E-01  8.50000000E-01  8.50000000E-01  8.50000000E-01  8.50000000E-01
  8.50000000E-01  9.60000000E-01  8.50000000E-01  7.20000000E-01  7.20000000E-01
  8.50000000E-01  8.50000000E-01  8.50000000E-01  8.50000000E-01  8.50000000E-01
  8.50000000E-01  9.60000000E-01  8.50000000E-01  7.20000000E-01  7.20000000E-01
  8.50000000E-01  8.50000000E-01  8.50000000E-01  8.50000000E-01  8.50000000E-01
  8.50000000E-01  9.60000000E-01  8.50000000E-01  7.20000000E-01  7.20000000E-01
  8.50000000E-01  8.50000000E-01  8.50000000E-01  8.50000000E-01  8.50000000E-01
  8.50000000E-01  9.60000000E-01  8.50000000E-01  7.20000000E-01  7.20000000E-01
  8.50000000E-01  8.50000000E-01  8.50000000E-01  8.50000000E-01  8.50000000E-01
  8.50000000E-01  9.60000000E-01  8.50000000E-01  7.20000000E-01  7.20000000E-01
  8.50000000E-01  8.50000000E-01  8.50000000E-01  8.50000000E-01  8.50000000E-01
  8.50000000E-01  9.60000000E-01  8.50000000E-01  7.20000000E-01  7.20000000E-01
  8.50000000E-01  8.50000000E-01  8.50000000E-01  8.50000000E-01  8.50000000E-01
  8.50000000E-01  9.60000000E-01  8.50000000E-01  7.20000000E-01  7.20000000E-01
  8.50000000E-01  8.50000000E-01  8.50000000E-01  8.50000000E-01  8.50000000E-01
  8.50000000E-01  9.60000000E-01  8.50000000E-01  7.20000000E-01  7.20000000E-01
  8.50000000E-01  8.50000000E-01  8.50000000E-01  8.50000000E-01  8.50000000E-01
  8.50000000E-01  9.60000000E-01  8.50000000E-01  7.20000000E-01  7.20000000E-01
  8.50000000E-01  8.50000000E-01  8.50000000E-01  8.50000000E-01  8.50000000E-01
  8.50000000E-01  9.60000000E-01  8.50000000E-01  7.20000000E-01  7.20000000E-01
  8.50000000E-01  8.50000000E-01  8.50000000E-01  8.50000000E-01  8.50000000E-01
  8.50000000E-01  9.60000000E-01  8.50000000E-01  7.20000000E-01  7.20000000E-01
  8.50000000E-01  8.50000000E-01  8.50000000E-01  8.50000000E-01  8.50000000E-01
  8.50000000E-01  9.60000000E-01  8.50000000E-01  7.20000000E-01  7.20000000E-01
  8.50000000E-01  8.50000000E-01  8.50000000E-01  8.50000000E-01  8.50000000E-01
  8.50000000E-01  9.60000000E-01  8.50000000E-01  7.20000000E-01  7.20000000E-01
  8.50000000E-01  8.50000000E-01  8.50000000E-01  8.50000000E-01  8.50000000E-01
  8.50000000E-01  9.60000000E-01  8.50000000E-01  7.20000000E-01  7.20000000E-01
  8.50000000E-01  8.50000000E-01  8.50000000E-01  8.50000000E-01  8.50000000E-01
  8.50000000E-01  9.60000000E-01  8.50000000E-01  7.20000000E-01  7.20000000E-01
  8.50000000E-01  8.50000000E-01  8.50000000E-01  8.50000000E-01  8.50000000E-01
  8.50000000E-01  9.60000000E-01  8.50000000E-01  7.20000000E-01  7.20000000E-01
  8.50000000E-01  8.50000000E-01  8.50000000E-01  8.50000000E-01  8.50000000E-01
  8.50000000E-01  9.60000000E-01  8.50000000E-01  7.20000000E-01  7.20000000E-01
  8.50000000E-01  8.50000000E-01  8.50000000E-01  8.50000000E-01  8.50000000E-01
  8.50000000E-01  9.60000000E-01  8.50000000E-01  7.20000000E-01  7.20000000E-01
  8.50000000E-01  8.50000000E-01  8.50000000E-01  8.50000000E-01  8.50000000E-01
  8.50000000E-01  9.60000000E-01  8.50000000E-01  7.20000000E-01  7.20000000E-01
  8.50000000E-01  8.50000000E-01  8.50000000E-01  8.50000000E-01  8.50000000E-01
  8.50000000E-01  9.60000000E-01  8.50000000E-01  7.20000000E-01  7.20000000E-01
  8.50000000E-01  8.50000000E-01  8.50000000E-01  8.50000000E-01  8.50000000E-01
  8.50000000E-01  9.60000000E-01  8.50000000E-01  7.20000000E-01  7.20000000E-01
  8.50000000E-01  8.50000000E-01  8.50000000E-01  8.50000000E-01  8.50000000E-01
  8.50000000E-01  9.60000000E-01  8.50000000E-01  7.20000000E-01  7.20000000E-01
  8.50000000E-01  8.50000000E-01  8.50000000E-01  8.50000000E-01  8.50000000E-01
  8.50000000E-01  9.60000000E-01  8.50000000E-01  7.20000000E-01  7.20000000E-01
  8.50000000E-01  8.50000000E-01  8.50000000E-01  8.50000000E-01  8.50000000E-01
  8.50000000E-01  9.60000000E-01  8.50000000E-01  7.20000000E-01  7.20000000E-01
  8.50000000E-01  8.50000000E-01  8.50000000E-01  8.50000000E-01  8.50000000E-01
  8.50000000E-01  9.60000000E-01  8.50000000E-01  7.20000000E-01  7.20000000E-01
  8.50000000E-01  8.50000000E-01  8.50000000E-01  8.50000000E-01  8.50000000E-01
  8.50000000E-01  9.60000000E-01  8.50000000E-01  7.20000000E-01  7.20000000E-01
  8.50000000E-01  8.50000000E-01  8.50000000E-01  8.50000000E-01  8.50000000E-01
  8.50000000E-01  9.60000000E-01  8.50000000E-01  7.20000000E-01  7.20000000E-01
  8.50000000E-01  8.50000000E-01  8.50000000E-01  8.50000000E-01  8.50000000E-01
  8.50000000E-01  9.60000000E-01  8.50000000E-01  7.20000000E-01  7.20000000E-01
  8.50000000E-01  8.50000000E-01  8.50000000E-01  8.50000000E-01  8.50000000E-01
  8.50000000E-01  9.60000000E-01  8.50000000E-01  7.20000000E-01  7.20000000E-01
  8.50000000E-01  8.50000000E-01  8.50000000E-01  8.50000000E-01  8.50000000E-01
  8.50000000E-01  9.60000000E-01  8.50000000E-01  7.20000000E-01  7.20000000E-01
  8.50000000E-01  8.50000000E-01  8.50000000E-01  8.50000000E-01  8.50000000E-01
  8.50000000E-01  9.60000000E-01  8.50000000E-01  7.20000000E-01  7.20000000E-01
  8.50000000E-01  8.50000000E-01  8.50000000E-01  8.50000000E-01  8.50000000E-01
  8.50000000E-01  9.60000000E-01  8.50000000E-01  7.20000000E-01  7.20000000E-01
  8.50000000E-01  8.50000000E-01  8.50000000E-01  8.50000000E-01  8.50000000E-01
  8.50000000E-01  9.60000000E-01  8.50000000E-01  7.20000000E-01  7.20000000E-01
  8.50000000E-01  8.50000000E-01  8.50000000E-01  8.50000000E-01  8.50000000E-01
  8.50000000E-01  9.60000000E-01  8.50000000E-01  7.20000000E-01  7.20000000E-01
  8.50000000E-01  8.50000000E-01  8.50000000E-01  8.50000000E-01  8.50000000E-01
  8.50000000E-01  9.60000000E-01  8.50000000E-01  7.20000000E-01  7.20000000E-01
  8.50000000E-01  8.50000000E-01  8.50000000E-01  8.50000000E-01  8.50000000E-01
  8.50000000E-01  9.60000000E-01  8.50000000E-01  7.20000000E-01  7.20000000E-01
  8.50000000E-01  8.50000000E-01  8.50000000E-01  8.50000000E-01  8.50000000E-01
  8.50000000E-01  9.60000000E-01  8.50000000E-01  7.20000000E-01  7.20000000E-01
  8.50000000E-01  8.50000000E-01  8.50000000E-01  8.50000000E-01  8.50000000E-01
  8.50000000E-01  9.60000000E-01  8.50000000E-01  7.20000000E-01  7.20000000E-01
  8.50000000E-01  8.50000000E-01  8.50000000E-01  8.50000000E-01  8.50000000E-01
  8.50000000E-01  9.60000000E-01  8.50000000E-01  7.20000000E-01  7.20000000E-01
  8.50000000E-01  8.50000000E-01  8.50000000E-01  8.50000000E-01  8.50000000E-01
  8.50000000E-01  9.60000000E-01  8.50000000E-01  7.20000000E-01  7.20000000E-01
  8.50000000E-01  8.50000000E-01  8.50000000E-01  8.50000000E-01  8.50000000E-01
  8.50000000E-01  9.60000000E-01  8.50000000E-01  7.20000000E-01  7.20000000E-01
  8.50000000E-01  8.50000000E-01  8.50000000E-01  8.50000000E-01  8.50000000E-01
  8.50000000E-01  9.60000000E-01  8.50000000E-01  7.20000000E-01  7.20000000E-01
  8.50000000E-01  8.50000000E-01  8.50000000E-01  8.50000000E-01  8.50000000E-01
  8.50000000E-01  9.60000000E-01  8.50000000E-01  7.20000000E-01  7.20000000E-01
  8.50000000E-01  8.50000000E-01  8.50000000E-01  8.50000000E-01  8.50000000E-01
  8.50000000E-01  9.60000000E-01  8.50000000E-01  7.20000000E-01  7.20000000E-01
  8.50000000E-01  8.50000000E-01  8.50000000E-01  8.50000000E-01  8.50000000E-01
  8.50000000E-01  9.60000000E-01  8.50000000E-01  7.20000000E-01  7.20000000E-01
  8.50000000E-01  8.50000000E-01  8.50000000E-01  8.50000000E-01  8.50000000E-01
  8.50000000E-01  9.60000000E-01  8.50000000E-01  7.20000000E-01  7.20000000E-01
  8.50000000E-01  8.50000000E-01  8.50000000E-01  8.50000000E-01  8.50000000E-01
  8.50000000E-01  9.60000000E-01  8.50000000E-01  7.20000000E-01  7.20000000E-01
  8.50000000E-01  8.50000000E-01  8.50000000E-01  8.50000000E-01  8.50000000E-01
  8.50000000E-01  9.60000000E-01  8.50000000E-01  7.20000000E-01  7.20000000E-01
  8.50000000E-01  8.50000000E-01  8.50000000E-01  8.50000000E-01  8.50000000E-01
  8.50000000E-01  9.60000000E-01  8.50000000E-01  7.20000000E-01  7.20000000E-01
  8.50000000E-01  8.50000000E-01  8.50000000E-01  8.50000000E-01  8.50000000E-01
  8.50000000E-01  9.60000000E-01  8.50000000E-01  7.20000000E-01  7.20000000E-01
  8.50000000E-01  8.50000000E-01  8.50000000E-01  8.50000000E-01  8.50000000E-01
  8.50000000E-01  9.60000000E-01  8.50000000E-01  7.20000000E-01  7.20000000E-01
  8.50000000E-01  8.50000000E-01  8.50000000E-01  8.50000000E-01  8.50000000E-01
  8.50000000E-01  9.60000000E-01  8.50000000E-01  7.20000000E-01  7.20000000E-01
  8.50000000E-01  8.50000000E-01  8.50000000E-01  8.50000000E-01  8.50000000E-01
  8.50000000E-01  9.60000000E-01  8.50000000E-01  7.20000000E-01  7.20000000E-01
  8.50000000E-01  8.50000000E-01  8.50000000E-01  8.50000000E-01  8.50000000E-01
  8.50000000E-01  9.60000000E-01  8.50000000E-01  7.20000000E-01  7.20000000E-01
  8.50000000E-01  8.50000000E-01  8.50000000E-01  8.50000000E-01  8.50000000E-01
  8.50000000E-01  9.60000000E-01  8.50000000E-01  7.20000000E-01  7.20000000E-01
  8.50000000E-01  8.50000000E-01  8.50000000E-01  8.50000000E-01  8.50000000E-01
  8.50000000E-01  9.60000000E-01  8.50000000E-01  7.20000000E-01  7.20000000E-01
  8.50000000E-01  8.50000000E-01  8.50000000E-01  8.50000000E-01  8.50000000E-01
  8.50000000E-01  9.60000000E-01  8.50000000E-01  7.20000000E-01  7.20000000E-01
  8.50000000E-01  8.50000000E-01  8.50000000E-01  8.50000000E-01  8.50000000E-01
  8.50000000E-01  9.60000000E-01  8.50000000E-01  7.20000000E-01  7.20000000E-01
  8.50000000E-01  8.50000000E-01  8.50000000E-01  8.50000000E-01  8.50000000E-01
  8.50000000E-01  9.60000000E-01  8.50000000E-01  7.20000000E-01  7.20000000E-01
  8.50000000E-01  8.50000000E-01  8.50000000E-01  8.50000000E-01  8.50000000E-01
  8.50000000E-01  9.60000000E-01  8.50000000E-01  7.20000000E-01  7.20000000E-01
  8.50000000E-01  8.50000000E-01  8.50000000E-01  8.50000000E-01  8.50000000E-01
  8.50000000E-01  9.60000000E-01  8.50000000E-01  7.20000000E-01  7.20000000E-01
  8.50000000E-01  8.50000000E-01  8.50000000E-01  8.50000000E-01  8.50000000E-01
  8.50000000E-01  9.60000000E-01  8.50000000E-01  7.20000000E-01  7.20000000E-01
  8.50000000E-01  8.50000000E-01  8.50000000E-01  8.50000000E-01  8.50000000E-01
  8.50000000E-01  9.60000000E-01  8.50000000E-01  7.20000000E-01  7.20000000E-01
  8.50000000E-01  8.50000000E-01  8.50000000E-01  8.50000000E-01  8.50000000E-01
  8.50000000E-01  9.60000000E-01  8.50000000E-01  7.20000000E-01  7.20000000E-01
  8.50000000E-01  8.50000000E-01  8.50000000E-01  8.50000000E-01  8.50000000E-01
  8.50000000E-01  9.60000000E-01  8.50000000E-01  7.20000000E-01  7.20000000E-01
  8.50000000E-01  8.50000000E-01  8.50000000E-01  8.50000000E-01  8.50000000E-01
  8.50000000E-01  9.60000000E-01  8.50000000E-01  7.20000000E-01  7.20000000E-01
  8.50000000E-01  8.50000000E-01  8.50000000E-01  8.50000000E-01  8.50000000E-01
  8.50000000E-01  9.60000000E-01  8.50000000E-01  7.20000000E-01  7.20000000E-01
  8.50000000E-01  8.50000000E-01  8.50000000E-01  8.50000000E-01  8.50000000E-01
  8.50000000E-01  9.60000000E-01  8.50000000E-01  7.20000000E-01  7.20000000E-01
  8.50000000E-01  8.50000000E-01  8.50000000E-01  8.50000000E-01  8.50000000E-01
  8.50000000E-01  9.60000000E-01  8.50000000E-01  7.20000000E-01  7.20000000E-01
  8.50000000E-01  8.50000000E-01  8.50000000E-01  8.50000000E-01  8.50000000E-01
  8.50000000E-01  9.60000000E-01  8.50000000E-01  7.20000000E-01  7.20000000E-01
  8.50000000E-01  8.50000000E-01  8.50000000E-01  8.50000000E-01  8.50000000E-01
  8.50000000E-01  9.60000000E-01  8.50000000E-01  7.20000000E-01  7.20000000E-01
  8.50000000E-01  8.50000000E-01  8.50000000E-01  8.50000000E-01  8.50000000E-01
  8.50000000E-01  9.60000000E-01  8.50000000E-01  7.20000000E-01  7.20000000E-01
  8.50000000E-01  8.50000000E-01  8.50000000E-01  8.50000000E-01  8.50000000E-01
  8.50000000E-01  9.60000000E-01  8.50000000E-01  7.20000000E-01  7.20000000E-01
  8.50000000E-01  8.50000000E-01  8.50000000E-01  8.50000000E-01  8.50000000E-01
  8.50000000E-01  9.60000000E-01  8.50000000E-01  7.20000000E-01  7.20000000E-01
  8.50000000E-01  8.50000000E-01  8.50000000E-01  8.50000000E-01  8.50000000E-01
  8.50000000E-01  9.60000000E-01  8.50000000E-01  7.20000000E-01  7.20000000E-01
  8.50000000E-01  8.50000000E-01  8.50000000E-01  8.50000000E-01  8.50000000E-01
  8.50000000E-01
%FLAG IPOL                                                                      
%FORMAT(1I8)                                                                    
       0
