Generated with MDTraj, t= 0.0
 1944
    1MOL    C00    1   0.788   0.946   0.557
    1MOL    C01    2   0.691   0.945   0.661
    1MOL    C02    3   0.912   0.880   0.580
    1MOL    C03    4   0.767   1.012   0.434
    1MOL    C04    5   0.711   0.873   0.785
    1MOL    H05    6   0.598   0.994   0.647
    1MOL    C06    7   0.928   0.809   0.697
    1MOL    C07    8   1.010   0.883   0.475
    1MOL    C08    9   0.869   1.021   0.333
    1MOL    H09   10   0.682   1.072   0.418
    1MOL    C0A   11   0.614   0.864   0.886
    1MOL    C0B   12   0.831   0.807   0.804
    1MOL    H0C   13   1.022   0.754   0.714
    1MOL    H0D   14   1.093   0.827   0.491
    1MOL    C0E   15   0.991   0.955   0.356
    1MOL    C0F   16   0.845   1.094   0.213
    1MOL    C0G   17   0.639   0.808   1.010
    1MOL    H0H   18   0.521   0.915   0.872
    1MOL    C0I   19   0.857   0.737   0.925
    1MOL    C0J   20   1.082   0.949   0.249
    1MOL    C0K   21   0.943   1.101   0.111
    1MOL    H0M   22   0.752   1.145   0.210
    1MOL    C0N   23   0.759   0.735   1.028
    1MOL    H0O   24   0.560   0.809   1.078
    1MOL    H0P   25   0.957   0.688   0.934
    1MOL    H0Q   26   1.174   0.905   0.259
    1MOL    C0R   27   1.059   1.033   0.131
    1MOL    C0S   28   0.920   1.165  -0.007
    1MOL    H0T   29   0.771   0.695   1.119
    1MOL    C0U   30   1.158   1.039   0.027
    1MOL    C0V   31   1.019   1.180  -0.105
    1MOL    H0W   32   0.822   1.201  -0.033
    1MOL    C0X   33   1.143   1.116  -0.086
    1MOL    H0Y   34   1.258   0.985   0.037
    1MOL    H0Z   35   0.990   1.236  -0.185
    1MOL    H10   36   1.215   1.121  -0.162
    1MOL    C00   38   0.964   0.490   1.761
    1MOL    C01   39   1.061   0.497   1.663
    1MOL    C02   40   0.836   0.552   1.738
    1MOL    C03   41   0.983   0.423   1.886
    1MOL    C04   42   1.041   0.566   1.534
    1MOL    H05   43   1.159   0.468   1.678
    1MOL    C06   44   0.822   0.618   1.617
    1MOL    C07   45   0.737   0.554   1.842
    1MOL    C08   46   0.885   0.415   1.989
    1MOL    H09   47   1.071   0.374   1.905
    1MOL    C0A   48   1.140   0.571   1.431
    1MOL    C0B   49   0.924   0.626   1.516
    1MOL    H0C   50   0.735   0.671   1.601
    1MOL    H0D   51   0.645   0.601   1.834
    1MOL    C0E   52   0.758   0.480   1.963
    1MOL    C0F   53   0.903   0.365   2.115
    1MOL    C0G   54   1.128   0.645   1.315
    1MOL    H0H   55   1.230   0.510   1.459
    1MOL    C0I   56   0.911   0.705   1.401
    1MOL    C0J   57   0.659   0.475   2.056
    1MOL    C0K   58   0.800   0.360   2.212
    1MOL    H0M   59   0.998   0.335   2.140
    1MOL    C0N   60   1.007   0.717   1.298
    1MOL    H0O   61   1.212   0.657   1.242
    1MOL    H0P   62   0.820   0.761   1.383
    1MOL    H0Q   63   0.564   0.511   2.036
    1MOL    C0R   64   0.676   0.406   2.179
    1MOL    C0S   65   0.821   0.305   2.342
    1MOL    H0T   66   0.984   0.774   1.210
    1MOL    C0U   67   0.571   0.390   2.273
    1MOL    C0V   68   0.713   0.285   2.435
    1MOL    H0W   69   0.922   0.266   2.360
    1MOL    C0X   70   0.588   0.338   2.401
    1MOL    H0Y   71   0.468   0.424   2.254
    1MOL    H0Z   72   0.743   0.225   2.518
    1MOL    H10   73   0.508   0.331   2.463
    1MOL    C00   75   0.799   0.842   3.374
    1MOL    C01   76   0.708   0.839   3.479
    1MOL    C02   77   0.922   0.770   3.395
    1MOL    C03   78   0.786   0.916   3.251
    1MOL    C04   79   0.721   0.766   3.604
    1MOL    H05   80   0.615   0.891   3.477
    1MOL    C06   81   0.936   0.700   3.519
    1MOL    C07   82   1.023   0.777   3.300
    1MOL    C08   83   0.884   0.911   3.151
    1MOL    H09   84   0.702   0.973   3.237
    1MOL    C0A   85   0.622   0.770   3.701
    1MOL    C0B   86   0.839   0.698   3.621
    1MOL    H0C   87   1.025   0.647   3.539
    1MOL    H0D   88   1.107   0.727   3.315
    1MOL    C0E   89   1.007   0.840   3.174
    1MOL    C0F   90   0.868   0.975   3.030
    1MOL    C0G   91   0.647   0.715   3.830
    1MOL    H0H   92   0.532   0.826   3.685
    1MOL    C0I   93   0.861   0.636   3.744
    1MOL    C0J   94   1.099   0.831   3.074
    1MOL    C0K   95   0.965   0.961   2.927
    1MOL    H0M   96   0.788   1.029   3.008
    1MOL    C0N   97   0.772   0.648   3.853
    1MOL    H0O   98   0.574   0.726   3.904
    1MOL    H0P   99   0.953   0.586   3.766
    1MOL    H0Q  100   1.187   0.777   3.088
    1MOL    C0R  101   1.081   0.890   2.945
    1MOL    C0S  102   0.941   1.015   2.796
    1MOL    H0T  103   0.794   0.613   3.953
    1MOL    C0U  104   1.171   0.880   2.839
    1MOL    C0V  105   1.034   1.011   2.692
    1MOL    H0W  106   0.849   1.066   2.776
    1MOL    C0X  107   1.149   0.941   2.717
    1MOL    H0Y  108   1.262   0.838   2.863
    1MOL    H0Z  109   1.013   1.055   2.597
    1MOL    H10  110   1.218   0.934   2.652
    1MOL    C00  112   0.910   2.020   1.958
    1MOL    C01  113   0.808   2.013   2.058
    1MOL    C02  114   1.036   1.954   1.983
    1MOL    C03  115   0.888   2.088   1.841
    1MOL    C04  116   0.835   1.953   2.190
    1MOL    H05  117   0.710   2.058   2.052
    1MOL    C06  118   1.056   1.896   2.112
    1MOL    C07  119   1.135   1.961   1.887
    1MOL    C08  120   0.991   2.097   1.748
    1MOL    H09  121   0.801   2.135   1.819
    1MOL    C0A  122   0.739   1.950   2.289
    1MOL    C0B  123   0.956   1.898   2.217
    1MOL    H0C  124   1.149   1.856   2.136
    1MOL    H0D  125   1.221   1.911   1.917
    1MOL    C0E  126   1.119   2.033   1.769
    1MOL    C0F  127   0.972   2.159   1.624
    1MOL    C0G  128   0.760   1.899   2.416
    1MOL    H0H  129   0.640   1.985   2.263
    1MOL    C0I  130   0.981   1.838   2.346
    1MOL    C0J  131   1.218   2.045   1.674
    1MOL    C0K  132   1.074   2.160   1.521
    1MOL    H0M  133   0.886   2.207   1.591
    1MOL    C0N  134   0.883   1.837   2.448
    1MOL    H0O  135   0.680   1.909   2.488
    1MOL    H0P  136   1.082   1.802   2.368
    1MOL    H0Q  137   1.314   2.005   1.687
    1MOL    C0R  138   1.192   2.097   1.544
    1MOL    C0S  139   1.051   2.221   1.397
    1MOL    H0T  140   0.906   1.790   2.536
    1MOL    C0U  141   1.281   2.084   1.435
    1MOL    C0V  142   1.143   2.211   1.294
    1MOL    H0W  143   0.964   2.284   1.388
    1MOL    C0X  144   1.263   2.146   1.313
    1MOL    H0Y  145   1.374   2.039   1.462
    1MOL    H0Z  146   1.116   2.269   1.201
    1MOL    H10  147   1.342   2.147   1.247
    1MOL    C00  149   0.930   0.079   3.190
    1MOL    C01  150   1.027   0.070   3.089
    1MOL    C02  151   0.811   0.147   3.162
    1MOL    C03  152   0.949   0.021   3.316
    1MOL    C04  153   1.015   0.139   2.966
    1MOL    H05  154   1.115   0.026   3.114
    1MOL    C06  155   0.795   0.204   3.035
    1MOL    C07  156   0.710   0.146   3.264
    1MOL    C08  157   0.852   0.011   3.415
    1MOL    H09  158   1.032  -0.032   3.331
    1MOL    C0A  159   1.119   0.143   2.868
    1MOL    C0B  160   0.898   0.198   2.938
    1MOL    H0C  161   0.706   0.252   3.016
    1MOL    H0D  162   0.617   0.188   3.247
    1MOL    C0E  163   0.729   0.079   3.393
    1MOL    C0F  164   0.865  -0.055   3.538
    1MOL    C0G  165   1.099   0.197   2.743
    1MOL    H0H  166   1.212   0.092   2.884
    1MOL    C0I  167   0.874   0.249   2.808
    1MOL    C0J  168   0.632   0.074   3.495
    1MOL    C0K  169   0.759  -0.056   3.643
    1MOL    H0M  170   0.960  -0.102   3.557
    1MOL    C0N  171   0.976   0.249   2.711
    1MOL    H0O  172   1.176   0.194   2.671
    1MOL    H0P  173   0.773   0.274   2.778
    1MOL    H0Q  174   0.543   0.123   3.475
    1MOL    C0R  175   0.643   0.007   3.619
    1MOL    C0S  176   0.776  -0.126   3.764
    1MOL    H0T  177   0.959   0.283   2.607
    1MOL    C0U  178   0.545   0.002   3.714
    1MOL    C0V  179   0.670  -0.145   3.855
    1MOL    H0W  180   0.870  -0.164   3.795
    1MOL    C0X  181   0.550  -0.074   3.831
    1MOL    H0Y  182   0.459   0.064   3.701
    1MOL    H0Z  183   0.688  -0.208   3.944
    1MOL    H10  184   0.470  -0.077   3.899
    1MOL    C00  186   0.855   1.274   1.982
    1MOL    C01  187   0.753   1.268   2.086
    1MOL    C02  188   0.984   1.211   2.009
    1MOL    C03  189   0.828   1.343   1.866
    1MOL    C04  190   0.774   1.201   2.204
    1MOL    H05  191   0.662   1.308   2.066
    1MOL    C06  192   1.009   1.145   2.132
    1MOL    C07  193   1.088   1.215   1.909
    1MOL    C08  194   0.927   1.340   1.756
    1MOL    H09  195   0.723   1.390   1.855
    1MOL    C0A  196   0.663   1.173   2.296
    1MOL    C0B  197   0.905   1.135   2.232
    1MOL    H0C  198   1.109   1.097   2.154
    1MOL    H0D  199   1.186   1.156   1.929
    1MOL    C0E  200   1.056   1.273   1.780
    1MOL    C0F  201   0.901   1.409   1.637
    1MOL    C0G  202   0.677   1.098   2.404
    1MOL    H0H  203   0.561   1.218   2.266
    1MOL    C0I  204   0.916   1.051   2.352
    1MOL    C0J  205   1.157   1.276   1.677
    1MOL    C0K  206   0.999   1.412   1.536
    1MOL    H0M  207   0.808   1.448   1.636
    1MOL    C0N  208   0.809   1.042   2.433
    1MOL    H0O  209   0.606   1.075   2.487
    1MOL    H0P  210   0.999   0.995   2.383
    1MOL    H0Q  211   1.261   1.230   1.687
    1MOL    C0R  212   1.129   1.339   1.558
    1MOL    C0S  213   0.976   1.476   1.409
    1MOL    H0T  214   0.806   0.985   2.521
    1MOL    C0U  215   1.226   1.340   1.447
    1MOL    C0V  216   1.068   1.474   1.310
    1MOL    H0W  217   0.883   1.531   1.382
    1MOL    C0X  218   1.191   1.404   1.332
    1MOL    H0Y  219   1.319   1.294   1.459
    1MOL    H0Z  220   1.054   1.521   1.224
    1MOL    H10  221   1.255   1.410   1.255
    1MOL    C00  223   1.081   1.596   3.182
    1MOL    C01  224   1.164   1.588   3.077
    1MOL    C02  225   0.964   1.675   3.168
    1MOL    C03  226   1.104   1.522   3.303
    1MOL    C04  227   1.152   1.664   2.953
    1MOL    H05  228   1.251   1.527   3.075
    1MOL    C06  229   0.947   1.751   3.052
    1MOL    C07  230   0.865   1.679   3.271
    1MOL    C08  231   1.009   1.520   3.406
    1MOL    H09  232   1.192   1.472   3.312
    1MOL    C0A  233   1.250   1.654   2.850
    1MOL    C0B  234   1.043   1.743   2.943
    1MOL    H0C  235   0.868   1.815   3.028
    1MOL    H0D  236   0.779   1.734   3.260
    1MOL    C0E  237   0.887   1.598   3.386
    1MOL    C0F  238   1.025   1.459   3.530
    1MOL    C0G  239   1.230   1.717   2.730
    1MOL    H0H  240   1.343   1.594   2.866
    1MOL    C0I  241   1.023   1.815   2.822
    1MOL    C0J  242   0.786   1.596   3.489
    1MOL    C0K  243   0.929   1.468   3.634
    1MOL    H0M  244   1.105   1.393   3.548
    1MOL    C0N  245   1.116   1.802   2.721
    1MOL    H0O  246   1.316   1.714   2.662
    1MOL    H0P  247   0.933   1.881   2.820
    1MOL    H0Q  248   0.696   1.657   3.479
    1MOL    C0R  249   0.814   1.534   3.614
    1MOL    C0S  250   0.951   1.411   3.762
    1MOL    H0T  251   1.099   1.856   2.632
    1MOL    C0U  252   0.720   1.548   3.716
    1MOL    C0V  253   0.853   1.409   3.857
    1MOL    H0W  254   1.041   1.358   3.776
    1MOL    C0X  255   0.736   1.483   3.842
    1MOL    H0Y  256   0.629   1.606   3.702
    1MOL    H0Z  257   0.869   1.350   3.944
    1MOL    H10  258   0.655   1.482   3.916
    1MOL    C00  260   0.700   0.182   0.563
    1MOL    C01  261   0.611   0.183   0.671
    1MOL    C02  262   0.825   0.113   0.584
    1MOL    C03  263   0.682   0.255   0.446
    1MOL    C04  264   0.628   0.105   0.793
    1MOL    H05  265   0.531   0.244   0.668
    1MOL    C06  266   0.838   0.038   0.707
    1MOL    C07  267   0.924   0.119   0.486
    1MOL    C08  268   0.780   0.255   0.347
    1MOL    H09  269   0.599   0.307   0.433
    1MOL    C0A  270   0.524   0.100   0.887
    1MOL    C0B  271   0.744   0.034   0.811
    1MOL    H0C  272   0.914  -0.026   0.721
    1MOL    H0D  273   1.008   0.073   0.499
    1MOL    C0E  274   0.901   0.188   0.366
    1MOL    C0F  275   0.761   0.316   0.225
    1MOL    C0G  276   0.541   0.023   1.009
    1MOL    H0H  277   0.437   0.156   0.879
    1MOL    C0I  278   0.761  -0.039   0.928
    1MOL    C0J  279   0.993   0.183   0.260
    1MOL    C0K  280   0.856   0.317   0.118
    1MOL    H0M  281   0.673   0.367   0.209
    1MOL    C0N  282   0.663  -0.046   1.031
    1MOL    H0O  283   0.462   0.023   1.083
    1MOL    H0P  284   0.849  -0.089   0.941
    1MOL    H0Q  285   1.079   0.132   0.263
    1MOL    C0R  286   0.971   0.250   0.136
    1MOL    C0S  287   0.830   0.390   0.000
    1MOL    H0T  288   0.681  -0.113   1.117
    1MOL    C0U  289   1.067   0.262   0.036
    1MOL    C0V  290   0.927   0.401  -0.101
    1MOL    H0W  291   0.740   0.452  -0.013
    1MOL    C0X  292   1.052   0.334  -0.090
    1MOL    H0Y  293   1.156   0.212   0.043
    1MOL    H0Z  294   0.909   0.461  -0.188
    1MOL    H10  295   1.123   0.346  -0.163
    1MOL    C00  297   1.056   1.720   0.361
    1MOL    C01  298   1.150   1.724   0.259
    1MOL    C02  299   0.935   1.798   0.347
    1MOL    C03  300   1.076   1.644   0.483
    1MOL    C04  301   1.124   1.791   0.133
    1MOL    H05  302   1.240   1.678   0.264
    1MOL    C06  303   0.916   1.864   0.229
    1MOL    C07  304   0.837   1.788   0.449
    1MOL    C08  305   0.975   1.638   0.582
    1MOL    H09  306   1.161   1.590   0.494
    1MOL    C0A  307   1.218   1.783   0.028
    1MOL    C0B  308   1.008   1.863   0.122
    1MOL    H0C  309   0.827   1.919   0.215
    1MOL    H0D  310   0.748   1.845   0.433
    1MOL    C0E  311   0.853   1.704   0.563
    1MOL    C0F  312   0.987   1.564   0.703
    1MOL    C0G  313   1.194   1.851  -0.098
    1MOL    H0H  314   1.308   1.734   0.047
    1MOL    C0I  315   0.988   1.932  -0.001
    1MOL    C0J  316   0.753   1.694   0.658
    1MOL    C0K  317   0.889   1.562   0.810
    1MOL    H0M  318   1.072   1.503   0.714
    1MOL    C0N  319   1.082   1.924  -0.105
    1MOL    H0O  320   1.267   1.861  -0.170
    1MOL    H0P  321   0.902   1.994  -0.022
    1MOL    H0Q  322   0.658   1.737   0.646
    1MOL    C0R  323   0.769   1.627   0.785
    1MOL    C0S  324   0.910   1.502   0.937
    1MOL    H0T  325   1.074   2.003  -0.186
    1MOL    C0U  326   0.670   1.632   0.887
    1MOL    C0V  327   0.809   1.506   1.036
    1MOL    H0W  328   1.006   1.448   0.959
    1MOL    C0X  329   0.691   1.579   1.017
    1MOL    H0Y  330   0.584   1.686   0.859
    1MOL    H0Z  331   0.835   1.456   1.131
    1MOL    H10  332   0.629   1.581   1.102
    1MOL    C00  334   1.079   0.393   3.382
    1MOL    C01  335   0.982   0.336   3.468
    1MOL    C02  336   1.204   0.440   3.440
    1MOL    C03  337   1.055   0.401   3.239
    1MOL    C04  338   0.997   0.329   3.608
    1MOL    H05  339   0.884   0.307   3.432
    1MOL    C06  340   1.218   0.425   3.579
    1MOL    C07  341   1.301   0.502   3.354
    1MOL    C08  342   1.157   0.458   3.159
    1MOL    H09  343   0.973   0.365   3.195
    1MOL    C0A  344   0.896   0.281   3.689
    1MOL    C0B  345   1.117   0.371   3.664
    1MOL    H0C  346   1.305   0.456   3.627
    1MOL    H0D  347   1.393   0.537   3.392
    1MOL    C0E  348   1.278   0.505   3.217
    1MOL    C0F  349   1.141   0.472   3.019
    1MOL    C0G  350   0.918   0.268   3.829
    1MOL    H0H  351   0.805   0.257   3.636
    1MOL    C0I  352   1.140   0.357   3.804
    1MOL    C0J  353   1.376   0.548   3.127
    1MOL    C0K  354   1.240   0.520   2.931
    1MOL    H0M  355   1.051   0.432   2.976
    1MOL    C0N  356   1.038   0.304   3.886
    1MOL    H0O  357   0.837   0.231   3.886
    1MOL    H0P  358   1.243   0.375   3.833
    1MOL    H0Q  359   1.473   0.583   3.153
    1MOL    C0R  360   1.359   0.558   2.984
    1MOL    C0S  361   1.217   0.527   2.790
    1MOL    H0T  362   1.050   0.301   3.993
    1MOL    C0U  363   1.456   0.604   2.893
    1MOL    C0V  364   1.317   0.567   2.701
    1MOL    H0W  365   1.123   0.489   2.748
    1MOL    C0X  366   1.439   0.610   2.755
    1MOL    H0Y  367   1.553   0.636   2.939
    1MOL    H0Z  368   1.290   0.568   2.591
    1MOL    H10  369   1.522   0.641   2.682
    1MOL    C00  371   1.055   0.502   0.524
    1MOL    C01  372   0.961   0.451   0.611
    1MOL    C02  373   1.179   0.543   0.586
    1MOL    C03  374   1.042   0.516   0.384
    1MOL    C04  375   0.976   0.432   0.757
    1MOL    H05  376   0.870   0.419   0.573
    1MOL    C06  377   1.188   0.535   0.728
    1MOL    C07  378   1.281   0.606   0.513
    1MOL    C08  379   1.140   0.580   0.309
    1MOL    H09  380   0.956   0.484   0.335
    1MOL    C0A  381   0.886   0.364   0.837
    1MOL    C0B  382   1.089   0.482   0.811
    1MOL    H0C  383   1.278   0.577   0.779
    1MOL    H0D  384   1.366   0.643   0.560
    1MOL    C0E  385   1.264   0.617   0.371
    1MOL    C0F  386   1.126   0.602   0.172
    1MOL    C0G  387   0.902   0.349   0.978
    1MOL    H0H  388   0.805   0.317   0.791
    1MOL    C0I  389   1.107   0.477   0.950
    1MOL    C0J  390   1.365   0.676   0.290
    1MOL    C0K  391   1.229   0.665   0.092
    1MOL    H0M  392   1.043   0.579   0.114
    1MOL    C0N  393   1.010   0.408   1.035
    1MOL    H0O  394   0.827   0.291   1.028
    1MOL    H0P  395   1.196   0.526   0.974
    1MOL    H0Q  396   1.457   0.702   0.324
    1MOL    C0R  397   1.348   0.701   0.152
    1MOL    C0S  398   1.215   0.687  -0.049
    1MOL    H0T  399   1.023   0.410   1.139
    1MOL    C0U  400   1.449   0.761   0.075
    1MOL    C0V  401   1.326   0.741  -0.128
    1MOL    H0W  402   1.119   0.656  -0.096
    1MOL    C0X  403   1.443   0.775  -0.062
    1MOL    H0Y  404   1.538   0.784   0.135
    1MOL    H0Z  405   1.314   0.743  -0.233
    1MOL    H10  406   1.528   0.810  -0.110
    1MOL    C00  408   1.371   1.267   3.191
    1MOL    C01  409   1.464   1.327   3.103
    1MOL    C02  410   1.247   1.225   3.133
    1MOL    C03  411   1.395   1.249   3.330
    1MOL    C04  412   1.449   1.337   2.965
    1MOL    H05  413   1.550   1.361   3.143
    1MOL    C06  414   1.241   1.230   2.991
    1MOL    C07  415   1.147   1.181   3.219
    1MOL    C08  416   1.292   1.195   3.410
    1MOL    H09  417   1.486   1.285   3.366
    1MOL    C0A  418   1.554   1.396   2.886
    1MOL    C0B  419   1.338   1.291   2.907
    1MOL    H0C  420   1.160   1.186   2.941
    1MOL    H0D  421   1.058   1.155   3.176
    1MOL    C0E  422   1.164   1.165   3.353
    1MOL    C0F  423   1.303   1.180   3.552
    1MOL    C0G  424   1.536   1.420   2.746
    1MOL    H0H  425   1.644   1.429   2.939
    1MOL    C0I  426   1.329   1.296   2.768
    1MOL    C0J  427   1.063   1.113   3.430
    1MOL    C0K  428   1.194   1.136   3.634
    1MOL    H0M  429   1.388   1.211   3.599
    1MOL    C0N  430   1.426   1.357   2.687
    1MOL    H0O  431   1.617   1.468   2.683
    1MOL    H0P  432   1.238   1.259   2.719
    1MOL    H0Q  433   0.974   1.085   3.388
    1MOL    C0R  434   1.075   1.103   3.570
    1MOL    C0S  435   1.199   1.123   3.770
    1MOL    H0T  436   1.412   1.360   2.591
    1MOL    C0U  437   0.967   1.051   3.650
    1MOL    C0V  438   1.087   1.093   3.850
    1MOL    H0W  439   1.303   1.128   3.804
    1MOL    C0X  440   0.971   1.051   3.789
    1MOL    H0Y  441   0.876   1.027   3.594
    1MOL    H0Z  442   1.102   1.085   3.956
    1MOL    H10  443   0.882   1.023   3.844
    1MOL    C00  445   1.322   0.930   1.808
    1MOL    C01  446   1.422   0.994   1.726
    1MOL    C02  447   1.204   0.876   1.744
    1MOL    C03  448   1.334   0.919   1.949
    1MOL    C04  449   1.401   1.003   1.587
    1MOL    H05  450   1.510   1.026   1.771
    1MOL    C06  451   1.183   0.885   1.609
    1MOL    C07  452   1.105   0.809   1.821
    1MOL    C08  453   1.233   0.850   2.027
    1MOL    H09  454   1.414   0.956   2.003
    1MOL    C0A  455   1.505   1.056   1.503
    1MOL    C0B  456   1.284   0.949   1.526
    1MOL    H0C  457   1.090   0.846   1.561
    1MOL    H0D  458   1.008   0.771   1.776
    1MOL    C0E  459   1.119   0.797   1.959
    1MOL    C0F  460   1.238   0.836   2.170
    1MOL    C0G  461   1.491   1.063   1.361
    1MOL    H0H  462   1.602   1.097   1.529
    1MOL    C0I  463   1.267   0.954   1.383
    1MOL    C0J  464   1.014   0.731   2.035
    1MOL    C0K  465   1.135   0.775   2.238
    1MOL    H0M  466   1.317   0.881   2.216
    1MOL    C0N  467   1.370   1.012   1.307
    1MOL    H0O  468   1.574   1.108   1.311
    1MOL    H0P  469   1.175   0.919   1.345
    1MOL    H0Q  470   0.923   0.694   1.978
    1MOL    C0R  471   1.024   0.722   2.169
    1MOL    C0S  472   1.141   0.754   2.381
    1MOL    H0T  473   1.351   1.014   1.201
    1MOL    C0U  474   0.911   0.665   2.246
    1MOL    C0V  475   1.040   0.695   2.460
    1MOL    H0W  476   1.232   0.775   2.449
    1MOL    C0X  477   0.919   0.651   2.391
    1MOL    H0Y  478   0.821   0.623   2.209
    1MOL    H0Z  479   1.055   0.678   2.563
    1MOL    H10  480   0.838   0.613   2.456
    1MOL    C00  482   1.012   0.056   1.952
    1MOL    C01  483   0.925  -0.009   2.042
    1MOL    C02  484   1.135   0.105   2.007
    1MOL    C03  485   0.988   0.065   1.811
    1MOL    C04  486   0.946  -0.019   2.175
    1MOL    H05  487   0.839  -0.059   2.006
    1MOL    C06  488   1.155   0.101   2.143
    1MOL    C07  489   1.229   0.157   1.918
    1MOL    C08  490   1.087   0.121   1.722
    1MOL    H09  491   0.897   0.038   1.773
    1MOL    C0A  492   0.850  -0.068   2.260
    1MOL    C0B  493   1.062   0.026   2.231
    1MOL    H0C  494   1.238   0.150   2.181
    1MOL    H0D  495   1.312   0.200   1.956
    1MOL    C0E  496   1.211   0.163   1.776
    1MOL    C0F  497   1.070   0.143   1.585
    1MOL    C0G  498   0.865  -0.081   2.401
    1MOL    H0H  499   0.764  -0.108   2.217
    1MOL    C0I  500   1.082   0.012   2.371
    1MOL    C0J  501   1.309   0.207   1.691
    1MOL    C0K  502   1.169   0.187   1.499
    1MOL    H0M  503   0.976   0.116   1.543
    1MOL    C0N  504   0.988  -0.050   2.458
    1MOL    H0O  505   0.793  -0.123   2.458
    1MOL    H0P  506   1.180   0.052   2.410
    1MOL    H0Q  507   1.397   0.238   1.725
    1MOL    C0R  508   1.290   0.224   1.551
    1MOL    C0S  509   1.145   0.198   1.365
    1MOL    H0T  510   1.016  -0.065   2.563
    1MOL    C0U  511   1.397   0.269   1.463
    1MOL    C0V  512   1.235   0.270   1.278
    1MOL    H0W  513   1.049   0.171   1.324
    1MOL    C0X  514   1.370   0.299   1.326
    1MOL    H0Y  515   1.492   0.296   1.500
    1MOL    H0Z  516   1.209   0.277   1.177
    1MOL    H10  517   1.444   0.341   1.266
    1MOL    C00  519   1.385   1.706   1.796
    1MOL    C01  520   1.474   1.762   1.706
    1MOL    C02  521   1.255   1.658   1.740
    1MOL    C03  522   1.409   1.690   1.933
    1MOL    C04  523   1.452   1.772   1.566
    1MOL    H05  524   1.562   1.796   1.746
    1MOL    C06  525   1.237   1.670   1.604
    1MOL    C07  526   1.162   1.603   1.833
    1MOL    C08  527   1.316   1.625   2.020
    1MOL    H09  528   1.490   1.729   1.971
    1MOL    C0A  529   1.552   1.824   1.481
    1MOL    C0B  530   1.336   1.728   1.515
    1MOL    H0C  531   1.148   1.633   1.553
    1MOL    H0D  532   1.070   1.569   1.800
    1MOL    C0E  533   1.191   1.593   1.971
    1MOL    C0F  534   1.347   1.611   2.156
    1MOL    C0G  535   1.534   1.830   1.341
    1MOL    H0H  536   1.643   1.859   1.527
    1MOL    C0I  537   1.314   1.745   1.373
    1MOL    C0J  538   1.101   1.539   2.062
    1MOL    C0K  539   1.256   1.554   2.250
    1MOL    H0M  540   1.443   1.653   2.188
    1MOL    C0N  541   1.415   1.786   1.284
    1MOL    H0O  542   1.615   1.876   1.286
    1MOL    H0P  543   1.208   1.717   1.339
    1MOL    H0Q  544   0.999   1.511   2.029
    1MOL    C0R  545   1.131   1.511   2.204
    1MOL    C0S  546   1.272   1.553   2.395
    1MOL    H0T  547   1.395   1.794   1.182
    1MOL    C0U  548   1.038   1.457   2.292
    1MOL    C0V  549   1.179   1.503   2.489
    1MOL    H0W  550   1.368   1.591   2.437
    1MOL    C0X  551   1.062   1.449   2.433
    1MOL    H0Y  552   0.945   1.423   2.242
    1MOL    H0Z  553   1.209   1.492   2.585
    1MOL    H10  554   0.994   1.398   2.487
    1MOL    C00  556   1.337   1.395   0.398
    1MOL    C01  557   1.430   1.457   0.315
    1MOL    C02  558   1.213   1.348   0.336
    1MOL    C03  559   1.357   1.375   0.538
    1MOL    C04  560   1.411   1.469   0.177
    1MOL    H05  561   1.524   1.479   0.347
    1MOL    C06  562   1.190   1.373   0.200
    1MOL    C07  563   1.112   1.286   0.419
    1MOL    C08  564   1.260   1.315   0.620
    1MOL    H09  565   1.446   1.410   0.584
    1MOL    C0A  566   1.515   1.518   0.092
    1MOL    C0B  567   1.293   1.429   0.120
    1MOL    H0C  568   1.102   1.337   0.155
    1MOL    H0D  569   1.030   1.241   0.386
    1MOL    C0E  570   1.138   1.265   0.560
    1MOL    C0F  571   1.272   1.313   0.755
    1MOL    C0G  572   1.497   1.525  -0.048
    1MOL    H0H  573   1.607   1.553   0.140
    1MOL    C0I  574   1.268   1.454  -0.013
    1MOL    C0J  575   1.050   1.206   0.648
    1MOL    C0K  576   1.182   1.242   0.841
    1MOL    H0M  577   1.357   1.360   0.804
    1MOL    C0N  578   1.368   1.491  -0.099
    1MOL    H0O  579   1.569   1.571  -0.113
    1MOL    H0P  580   1.173   1.420  -0.058
    1MOL    H0Q  581   0.956   1.167   0.613
    1MOL    C0R  582   1.072   1.192   0.791
    1MOL    C0S  583   1.209   1.230   0.981
    1MOL    H0T  584   1.351   1.498  -0.206
    1MOL    C0U  585   0.980   1.122   0.872
    1MOL    C0V  586   1.118   1.171   1.069
    1MOL    H0W  587   1.304   1.269   1.020
    1MOL    C0X  588   1.005   1.114   1.013
    1MOL    H0Y  589   0.892   1.077   0.827
    1MOL    H0Z  590   1.132   1.158   1.181
    1MOL    H10  591   0.940   1.061   1.071
    1MOL    C00  593   1.418   2.046   3.201
    1MOL    C01  594   1.513   2.095   3.119
    1MOL    C02  595   1.305   1.989   3.137
    1MOL    C03  596   1.437   2.040   3.339
    1MOL    C04  597   1.501   2.110   2.977
    1MOL    H05  598   1.599   2.133   3.154
    1MOL    C06  599   1.289   2.000   2.999
    1MOL    C07  600   1.210   1.937   3.225
    1MOL    C08  601   1.340   1.990   3.425
    1MOL    H09  602   1.527   2.064   3.379
    1MOL    C0A  603   1.602   2.170   2.894
    1MOL    C0B  604   1.386   2.068   2.917
    1MOL    H0C  605   1.200   1.974   2.944
    1MOL    H0D  606   1.128   1.906   3.182
    1MOL    C0E  607   1.227   1.929   3.365
    1MOL    C0F  608   1.355   1.982   3.563
    1MOL    C0G  609   1.587   2.191   2.754
    1MOL    H0H  610   1.691   2.203   2.947
    1MOL    C0I  611   1.372   2.080   2.777
    1MOL    C0J  612   1.138   1.866   3.453
    1MOL    C0K  613   1.266   1.920   3.651
    1MOL    H0M  614   1.443   2.027   3.608
    1MOL    C0N  615   1.468   2.148   2.695
    1MOL    H0O  616   1.665   2.240   2.695
    1MOL    H0P  617   1.276   2.053   2.727
    1MOL    H0Q  618   1.048   1.823   3.419
    1MOL    C0R  619   1.157   1.864   3.595
    1MOL    C0S  620   1.290   1.902   3.789
    1MOL    H0T  621   1.454   2.157   2.593
    1MOL    C0U  622   1.065   1.794   3.682
    1MOL    C0V  623   1.200   1.836   3.873
    1MOL    H0W  624   1.384   1.949   3.824
    1MOL    C0X  625   1.086   1.781   3.819
    1MOL    H0Y  626   0.990   1.740   3.626
    1MOL    H0Z  627   1.214   1.834   3.974
    1MOL    H10  628   1.005   1.730   3.887
    1MOL    C00  630   1.190   2.034   0.553
    1MOL    C01  631   1.094   1.971   0.636
    1MOL    C02  632   1.308   2.089   0.611
    1MOL    C03  633   1.170   2.041   0.417
    1MOL    C04  634   1.112   1.956   0.777
    1MOL    H05  635   1.005   1.937   0.593
    1MOL    C06  636   1.319   2.079   0.751
    1MOL    C07  637   1.408   2.135   0.530
    1MOL    C08  638   1.270   2.099   0.335
    1MOL    H09  639   1.085   2.008   0.382
    1MOL    C0A  640   1.007   1.898   0.853
    1MOL    C0B  641   1.225   2.008   0.834
    1MOL    H0C  642   1.404   2.125   0.798
    1MOL    H0D  643   1.500   2.171   0.577
    1MOL    C0E  644   1.392   2.146   0.392
    1MOL    C0F  645   1.254   2.117   0.195
    1MOL    C0G  646   1.024   1.877   0.992
    1MOL    H0H  647   0.917   1.873   0.795
    1MOL    C0I  648   1.240   1.992   0.974
    1MOL    C0J  649   1.488   2.203   0.306
    1MOL    C0K  650   1.351   2.180   0.110
    1MOL    H0M  651   1.162   2.088   0.158
    1MOL    C0N  652   1.146   1.924   1.054
    1MOL    H0O  653   0.952   1.827   1.054
    1MOL    H0P  654   1.337   2.014   1.028
    1MOL    H0Q  655   1.575   2.243   0.351
    1MOL    C0R  656   1.469   2.220   0.164
    1MOL    C0S  657   1.325   2.200  -0.030
    1MOL    H0T  658   1.169   1.913   1.151
    1MOL    C0U  659   1.559   2.284   0.084
    1MOL    C0V  660   1.417   2.273  -0.110
    1MOL    H0W  661   1.227   2.167  -0.061
    1MOL    C0X  662   1.538   2.316  -0.052
    1MOL    H0Y  663   1.653   2.307   0.127
    1MOL    H0Z  664   1.380   2.305  -0.206
    1MOL    H10  665   1.612   2.363  -0.113
    1MOL    C00  667   0.436   0.502   0.547
    1MOL    C01  668   0.338   0.449   0.629
    1MOL    C02  669   0.562   0.545   0.604
    1MOL    C03  670   0.419   0.514   0.406
    1MOL    C04  671   0.353   0.434   0.767
    1MOL    H05  672   0.246   0.412   0.592
    1MOL    C06  673   0.572   0.535   0.743
    1MOL    C07  674   0.660   0.599   0.516
    1MOL    C08  675   0.513   0.580   0.320
    1MOL    H09  676   0.336   0.480   0.362
    1MOL    C0A  677   0.250   0.378   0.844
    1MOL    C0B  678   0.472   0.473   0.822
    1MOL    H0C  679   0.663   0.554   0.789
    1MOL    H0D  680   0.750   0.631   0.556
    1MOL    C0E  681   0.636   0.627   0.380
    1MOL    C0F  682   0.502   0.591   0.179
    1MOL    C0G  683   0.257   0.365   0.987
    1MOL    H0H  684   0.164   0.340   0.796
    1MOL    C0I  685   0.490   0.458   0.962
    1MOL    C0J  686   0.725   0.697   0.300
    1MOL    C0K  687   0.594   0.660   0.103
    1MOL    H0M  688   0.420   0.548   0.124
    1MOL    C0N  689   0.381   0.414   1.042
    1MOL    H0O  690   0.178   0.311   1.044
    1MOL    H0P  691   0.580   0.483   1.014
    1MOL    H0Q  692   0.814   0.736   0.337
    1MOL    C0R  693   0.704   0.717   0.161
    1MOL    C0S  694   0.585   0.667  -0.036
    1MOL    H0T  695   0.398   0.397   1.141
    1MOL    C0U  696   0.800   0.788   0.081
    1MOL    C0V  697   0.669   0.738  -0.116
    1MOL    H0W  698   0.505   0.619  -0.092
    1MOL    C0X  699   0.778   0.803  -0.057
    1MOL    H0Y  700   0.896   0.823   0.125
    1MOL    H0Z  701   0.645   0.747  -0.217
    1MOL    H10  702   0.841   0.865  -0.119
    1MOL    C00  704   0.494   1.267   0.567
    1MOL    C01  705   0.402   1.215   0.653
    1MOL    C02  706   0.618   1.309   0.625
    1MOL    C03  707   0.471   1.279   0.430
    1MOL    C04  708   0.420   1.192   0.794
    1MOL    H05  709   0.307   1.176   0.620
    1MOL    C06  710   0.630   1.293   0.763
    1MOL    C07  711   0.718   1.369   0.542
    1MOL    C08  712   0.575   1.334   0.343
    1MOL    H09  713   0.389   1.243   0.390
    1MOL    C0A  714   0.324   1.123   0.873
    1MOL    C0B  715   0.536   1.230   0.849
    1MOL    H0C  716   0.726   1.321   0.803
    1MOL    H0D  717   0.801   1.403   0.578
    1MOL    C0E  718   0.694   1.378   0.403
    1MOL    C0F  719   0.556   1.344   0.203
    1MOL    C0G  720   0.350   1.086   1.005
    1MOL    H0H  721   0.231   1.087   0.823
    1MOL    C0I  722   0.557   1.207   0.988
    1MOL    C0J  723   0.791   1.423   0.318
    1MOL    C0K  724   0.658   1.404   0.121
    1MOL    H0M  725   0.462   1.320   0.158
    1MOL    C0N  726   0.462   1.136   1.063
    1MOL    H0O  727   0.281   1.024   1.055
    1MOL    H0P  728   0.644   1.240   1.052
    1MOL    H0Q  729   0.888   1.449   0.347
    1MOL    C0R  730   0.768   1.445   0.179
    1MOL    C0S  731   0.640   1.429  -0.014
    1MOL    H0T  732   0.483   1.114   1.173
    1MOL    C0U  733   0.867   1.515   0.101
    1MOL    C0V  734   0.739   1.487  -0.098
    1MOL    H0W  735   0.538   1.417  -0.064
    1MOL    C0X  736   0.857   1.536  -0.041
    1MOL    H0Y  737   0.953   1.560   0.154
    1MOL    H0Z  738   0.720   1.504  -0.199
    1MOL    H10  739   0.929   1.591  -0.083
    1MOL    C00  741   0.583   2.044   0.549
    1MOL    C01  742   0.487   1.981   0.632
    1MOL    C02  743   0.705   2.086   0.609
    1MOL    C03  744   0.559   2.060   0.412
    1MOL    C04  745   0.507   1.962   0.771
    1MOL    H05  746   0.394   1.960   0.593
    1MOL    C06  747   0.723   2.065   0.747
    1MOL    C07  748   0.800   2.142   0.520
    1MOL    C08  749   0.655   2.120   0.328
    1MOL    H09  750   0.480   2.017   0.364
    1MOL    C0A  751   0.415   1.898   0.849
    1MOL    C0B  752   0.625   2.008   0.831
    1MOL    H0C  753   0.811   2.089   0.788
    1MOL    H0D  754   0.891   2.174   0.554
    1MOL    C0E  755   0.778   2.162   0.385
    1MOL    C0F  756   0.631   2.133   0.194
    1MOL    C0G  757   0.421   1.878   0.987
    1MOL    H0H  758   0.333   1.849   0.799
    1MOL    C0I  759   0.641   1.992   0.969
    1MOL    C0J  760   0.873   2.219   0.295
    1MOL    C0K  761   0.724   2.194   0.104
    1MOL    H0M  762   0.545   2.098   0.151
    1MOL    C0N  763   0.539   1.936   1.049
    1MOL    H0O  764   0.343   1.827   1.049
    1MOL    H0P  765   0.735   2.016   1.018
    1MOL    H0Q  766   0.968   2.249   0.329
    1MOL    C0R  767   0.846   2.236   0.153
    1MOL    C0S  768   0.700   2.203  -0.034
    1MOL    H0T  769   0.557   1.928   1.158
    1MOL    C0U  770   0.943   2.287   0.058
    1MOL    C0V  771   0.793   2.250  -0.125
    1MOL    H0W  772   0.606   2.169  -0.070
    1MOL    C0X  773   0.913   2.298  -0.079
    1MOL    H0Y  774   1.040   2.316   0.088
    1MOL    H0Z  775   0.758   2.253  -0.229
    1MOL    H10  776   0.984   2.338  -0.138
    1MOL    C00  778   0.497   0.824   1.940
    1MOL    C01  779   0.404   0.765   2.029
    1MOL    C02  780   0.617   0.872   2.003
    1MOL    C03  781   0.477   0.836   1.801
    1MOL    C04  782   0.419   0.750   2.170
    1MOL    H05  783   0.319   0.725   1.989
    1MOL    C06  784   0.632   0.858   2.144
    1MOL    C07  785   0.717   0.932   1.924
    1MOL    C08  786   0.585   0.894   1.722
    1MOL    H09  787   0.395   0.796   1.754
    1MOL    C0A  788   0.321   0.694   2.247
    1MOL    C0B  789   0.535   0.793   2.227
    1MOL    H0C  790   0.714   0.905   2.192
    1MOL    H0D  791   0.797   0.975   1.965
    1MOL    C0E  792   0.705   0.938   1.789
    1MOL    C0F  793   0.575   0.910   1.581
    1MOL    C0G  794   0.333   0.682   2.390
    1MOL    H0H  795   0.231   0.650   2.200
    1MOL    C0I  796   0.555   0.777   2.362
    1MOL    C0J  797   0.803   0.993   1.702
    1MOL    C0K  798   0.674   0.973   1.502
    1MOL    H0M  799   0.499   0.867   1.523
    1MOL    C0N  800   0.452   0.726   2.445
    1MOL    H0O  801   0.265   0.623   2.444
    1MOL    H0P  802   0.651   0.800   2.420
    1MOL    H0Q  803   0.887   1.031   1.749
    1MOL    C0R  804   0.788   1.010   1.562
    1MOL    C0S  805   0.667   0.989   1.364
    1MOL    H0T  806   0.463   0.726   2.553
    1MOL    C0U  807   0.890   1.078   1.486
    1MOL    C0V  808   0.757   1.063   1.289
    1MOL    H0W  809   0.586   0.941   1.304
    1MOL    C0X  810   0.864   1.122   1.356
    1MOL    H0Y  811   0.974   1.117   1.534
    1MOL    H0Z  812   0.748   1.077   1.182
    1MOL    H10  813   0.929   1.184   1.300
    1MOL    C00  815   0.518   1.187   3.371
    1MOL    C01  816   0.424   1.133   3.453
    1MOL    C02  817   0.640   1.232   3.433
    1MOL    C03  818   0.495   1.198   3.232
    1MOL    C04  819   0.441   1.108   3.591
    1MOL    H05  820   0.324   1.107   3.415
    1MOL    C06  821   0.650   1.216   3.573
    1MOL    C07  822   0.739   1.287   3.348
    1MOL    C08  823   0.597   1.250   3.152
    1MOL    H09  824   0.410   1.155   3.188
    1MOL    C0A  825   0.345   1.038   3.667
    1MOL    C0B  826   0.551   1.154   3.655
    1MOL    H0C  827   0.740   1.250   3.621
    1MOL    H0D  828   0.824   1.323   3.382
    1MOL    C0E  829   0.721   1.296   3.209
    1MOL    C0F  830   0.588   1.255   3.014
    1MOL    C0G  831   0.361   1.008   3.805
    1MOL    H0H  832   0.252   1.009   3.620
    1MOL    C0I  833   0.564   1.137   3.791
    1MOL    C0J  834   0.826   1.340   3.124
    1MOL    C0K  835   0.691   1.308   2.928
    1MOL    H0M  836   0.491   1.242   2.970
    1MOL    C0N  837   0.468   1.059   3.867
    1MOL    H0O  838   0.278   0.954   3.853
    1MOL    H0P  839   0.655   1.185   3.828
    1MOL    H0Q  840   0.926   1.366   3.160
    1MOL    C0R  841   0.809   1.348   2.985
    1MOL    C0S  842   0.680   1.309   2.787
    1MOL    H0T  843   0.486   1.054   3.975
    1MOL    C0U  844   0.910   1.395   2.902
    1MOL    C0V  845   0.783   1.358   2.704
    1MOL    H0W  846   0.585   1.271   2.743
    1MOL    C0X  847   0.897   1.403   2.762
    1MOL    H0Y  848   1.004   1.420   2.952
    1MOL    H0Z  849   0.772   1.353   2.598
    1MOL    H10  850   0.987   1.439   2.718
    1MOL    C00  852   1.498   1.603   3.377
    1MOL    C01  853   1.403   1.597   3.479
    1MOL    C02  854   1.621   1.533   3.401
    1MOL    C03  855   1.488   1.674   3.261
    1MOL    C04  856   1.418   1.528   3.598
    1MOL    H05  857   1.316   1.658   3.463
    1MOL    C06  858   1.639   1.466   3.527
    1MOL    C07  859   1.723   1.529   3.301
    1MOL    C08  860   1.582   1.672   3.159
    1MOL    H09  861   1.400   1.720   3.250
    1MOL    C0A  862   1.319   1.537   3.700
    1MOL    C0B  863   1.536   1.469   3.627
    1MOL    H0C  864   1.724   1.409   3.547
    1MOL    H0D  865   1.803   1.469   3.318
    1MOL    C0E  866   1.706   1.605   3.179
    1MOL    C0F  867   1.572   1.747   3.037
    1MOL    C0G  868   1.344   1.482   3.830
    1MOL    H0H  869   1.230   1.596   3.681
    1MOL    C0I  870   1.551   1.400   3.749
    1MOL    C0J  871   1.807   1.610   3.079
    1MOL    C0K  872   1.670   1.744   2.935
    1MOL    H0M  873   1.492   1.806   3.022
    1MOL    C0N  874   1.457   1.405   3.852
    1MOL    H0O  875   1.265   1.495   3.908
    1MOL    H0P  876   1.648   1.360   3.775
    1MOL    H0Q  877   1.895   1.565   3.093
    1MOL    C0R  878   1.791   1.684   2.957
    1MOL    C0S  879   1.652   1.814   2.814
    1MOL    H0T  880   1.464   1.344   3.939
    1MOL    C0U  881   1.893   1.680   2.856
    1MOL    C0V  882   1.755   1.820   2.711
    1MOL    H0W  883   1.561   1.875   2.802
    1MOL    C0X  884   1.872   1.746   2.729
    1MOL    H0Y  885   1.987   1.642   2.880
    1MOL    H0Z  886   1.734   1.891   2.638
    1MOL    H10  887   1.951   1.738   2.662
    1MOL    C00  889   0.760   1.704   1.810
    1MOL    C01  890   0.855   1.754   1.721
    1MOL    C02  891   0.636   1.662   1.755
    1MOL    C03  892   0.786   1.688   1.949
    1MOL    C04  893   0.829   1.775   1.582
    1MOL    H05  894   0.946   1.793   1.760
    1MOL    C06  895   0.615   1.673   1.619
    1MOL    C07  896   0.541   1.605   1.842
    1MOL    C08  897   0.688   1.633   2.035
    1MOL    H09  898   0.877   1.719   1.979
    1MOL    C0A  899   0.927   1.835   1.499
    1MOL    C0B  900   0.713   1.730   1.530
    1MOL    H0C  901   0.524   1.640   1.571
    1MOL    H0D  902   0.450   1.577   1.803
    1MOL    C0E  903   0.559   1.594   1.985
    1MOL    C0F  904   0.699   1.622   2.174
    1MOL    C0G  905   0.913   1.845   1.359
    1MOL    H0H  906   1.023   1.867   1.547
    1MOL    C0I  907   0.688   1.740   1.389
    1MOL    C0J  908   0.464   1.535   2.068
    1MOL    C0K  909   0.605   1.565   2.260
    1MOL    H0M  910   0.787   1.661   2.222
    1MOL    C0N  911   0.789   1.790   1.301
    1MOL    H0O  912   0.992   1.884   1.297
    1MOL    H0P  913   0.588   1.709   1.354
    1MOL    H0Q  914   0.370   1.504   2.037
    1MOL    C0R  915   0.490   1.513   2.208
    1MOL    C0S  916   0.626   1.561   2.404
    1MOL    H0T  917   0.778   1.782   1.194
    1MOL    C0U  918   0.398   1.453   2.295
    1MOL    C0V  919   0.530   1.508   2.494
    1MOL    H0W  920   0.716   1.602   2.442
    1MOL    C0X  921   0.415   1.454   2.434
    1MOL    H0Y  922   0.303   1.413   2.254
    1MOL    H0Z  923   0.547   1.499   2.595
    1MOL    H10  924   0.338   1.412   2.496
    1MOL    C00  926   1.435   0.837   3.378
    1MOL    C01  927   1.337   0.830   3.476
    1MOL    C02  928   1.557   0.762   3.401
    1MOL    C03  929   1.418   0.906   3.250
    1MOL    C04  930   1.358   0.769   3.606
    1MOL    H05  931   1.250   0.872   3.447
    1MOL    C06  932   1.568   0.698   3.520
    1MOL    C07  933   1.657   0.762   3.295
    1MOL    C08  934   1.519   0.900   3.151
    1MOL    H09  935   1.335   0.953   3.229
    1MOL    C0A  936   1.261   0.782   3.712
    1MOL    C0B  937   1.473   0.701   3.632
    1MOL    H0C  938   1.655   0.638   3.534
    1MOL    H0D  939   1.742   0.703   3.308
    1MOL    C0E  940   1.639   0.827   3.174
    1MOL    C0F  941   1.504   0.961   3.023
    1MOL    C0G  942   1.273   0.717   3.838
    1MOL    H0H  943   1.175   0.840   3.694
    1MOL    C0I  944   1.485   0.644   3.761
    1MOL    C0J  945   1.738   0.823   3.070
    1MOL    C0K  946   1.605   0.956   2.919
    1MOL    H0M  947   1.415   1.016   3.003
    1MOL    C0N  948   1.388   0.646   3.860
    1MOL    H0O  949   1.193   0.719   3.907
    1MOL    H0P  950   1.569   0.585   3.790
    1MOL    H0Q  951   1.832   0.776   3.076
    1MOL    C0R  952   1.715   0.884   2.940
    1MOL    C0S  953   1.579   1.015   2.790
    1MOL    H0T  954   1.390   0.582   3.948
    1MOL    C0U  955   1.806   0.874   2.834
    1MOL    C0V  956   1.673   1.003   2.686
    1MOL    H0W  957   1.501   1.084   2.773
    1MOL    C0X  958   1.784   0.927   2.705
    1MOL    H0Y  959   1.900   0.822   2.859
    1MOL    H0Z  960   1.651   1.069   2.605
    1MOL    H10  961   1.861   0.917   2.631
    1MOL    C00  963   1.734   2.015   1.785
    1MOL    C01  964   1.818   2.008   1.676
    1MOL    C02  965   1.612   2.085   1.764
    1MOL    C03  966   1.757   1.948   1.910
    1MOL    C04  967   1.794   2.070   1.548
    1MOL    H05  968   1.912   1.960   1.679
    1MOL    C06  969   1.592   2.150   1.638
    1MOL    C07  970   1.516   2.091   1.870
    1MOL    C08  971   1.656   1.951   2.014
    1MOL    H09  972   1.838   1.889   1.915
    1MOL    C0A  973   1.883   2.064   1.437
    1MOL    C0B  974   1.682   2.144   1.530
    1MOL    H0C  975   1.500   2.198   1.616
    1MOL    H0D  976   1.433   2.146   1.860
    1MOL    C0E  977   1.533   2.028   1.993
    1MOL    C0F  978   1.666   1.884   2.141
    1MOL    C0G  979   1.857   2.121   1.311
    1MOL    H0H  980   1.975   2.013   1.460
    1MOL    C0I  981   1.659   2.217   1.409
    1MOL    C0J  982   1.438   2.030   2.095
    1MOL    C0K  983   1.568   1.897   2.247
    1MOL    H0M  984   1.759   1.831   2.156
    1MOL    C0N  985   1.747   2.207   1.301
    1MOL    H0O  986   1.930   2.109   1.234
    1MOL    H0P  987   1.569   2.283   1.401
    1MOL    H0Q  988   1.345   2.075   2.072
    1MOL    C0R  989   1.456   1.970   2.226
    1MOL    C0S  990   1.587   1.834   2.373
    1MOL    H0T  991   1.724   2.270   1.218
    1MOL    C0U  992   1.354   1.969   2.327
    1MOL    C0V  993   1.492   1.835   2.472
    1MOL    H0W  994   1.667   1.766   2.388
    1MOL    C0X  995   1.375   1.909   2.454
    1MOL    H0Y  996   1.257   2.014   2.304
    1MOL    H0Z  997   1.512   1.773   2.562
    1MOL    H10  998   1.302   1.922   2.536
    1MOL    C00 1000   1.369   0.065   3.388
    1MOL    C01 1001   1.271   0.062   3.489
    1MOL    C02 1002   1.490  -0.009   3.408
    1MOL    C03 1003   1.350   0.146   3.271
    1MOL    C04 1004   1.296  -0.001   3.612
    1MOL    H05 1005   1.181   0.114   3.480
    1MOL    C06 1006   1.505  -0.085   3.525
    1MOL    C07 1007   1.597   0.003   3.313
    1MOL    C08 1008   1.448   0.147   3.170
    1MOL    H09 1009   1.265   0.196   3.255
    1MOL    C0A 1010   1.208   0.023   3.721
    1MOL    C0B 1011   1.407  -0.073   3.630
    1MOL    H0C 1012   1.587  -0.140   3.545
    1MOL    H0D 1013   1.694  -0.036   3.326
    1MOL    C0E 1014   1.572   0.077   3.198
    1MOL    C0F 1015   1.433   0.220   3.049
    1MOL    C0G 1016   1.220  -0.041   3.845
    1MOL    H0H 1017   1.127   0.096   3.698
    1MOL    C0I 1018   1.424  -0.131   3.757
    1MOL    C0J 1019   1.666   0.078   3.100
    1MOL    C0K 1020   1.530   0.218   2.951
    1MOL    H0M 1021   1.357   0.286   3.030
    1MOL    C0N 1022   1.330  -0.128   3.864
    1MOL    H0O 1023   1.137  -0.021   3.926
    1MOL    H0P 1024   1.520  -0.175   3.765
    1MOL    H0Q 1025   1.757   0.025   3.104
    1MOL    C0R 1026   1.644   0.145   2.970
    1MOL    C0S 1027   1.512   0.285   2.828
    1MOL    H0T 1028   1.341  -0.183   3.949
    1MOL    C0U 1029   1.733   0.131   2.863
    1MOL    C0V 1030   1.605   0.274   2.720
    1MOL    H0W 1031   1.423   0.346   2.821
    1MOL    C0X 1032   1.710   0.191   2.738
    1MOL    H0Y 1033   1.815   0.066   2.876
    1MOL    H0Z 1034   1.580   0.324   2.627
    1MOL    H10 1035   1.785   0.176   2.656
    1MOL    C00 1037   1.474   1.265   1.975
    1MOL    C01 1038   1.389   1.268   2.080
    1MOL    C02 1039   1.596   1.190   1.993
    1MOL    C03 1040   1.446   1.337   1.853
    1MOL    C04 1041   1.411   1.202   2.204
    1MOL    H05 1042   1.302   1.325   2.078
    1MOL    C06 1043   1.609   1.119   2.112
    1MOL    C07 1044   1.693   1.188   1.889
    1MOL    C08 1045   1.547   1.337   1.750
    1MOL    H09 1046   1.364   1.390   1.829
    1MOL    C0A 1047   1.310   1.212   2.308
    1MOL    C0B 1048   1.518   1.121   2.217
    1MOL    H0C 1049   1.697   1.067   2.127
    1MOL    H0D 1050   1.777   1.133   1.900
    1MOL    C0E 1051   1.670   1.263   1.771
    1MOL    C0F 1052   1.533   1.409   1.632
    1MOL    C0G 1053   1.313   1.125   2.420
    1MOL    H0H 1054   1.227   1.282   2.296
    1MOL    C0I 1055   1.527   1.044   2.334
    1MOL    C0J 1056   1.760   1.256   1.664
    1MOL    C0K 1057   1.626   1.396   1.523
    1MOL    H0M 1058   1.446   1.469   1.620
    1MOL    C0N 1059   1.430   1.047   2.439
    1MOL    H0O 1060   1.224   1.130   2.490
    1MOL    H0P 1061   1.618   0.988   2.351
    1MOL    H0Q 1062   1.850   1.213   1.681
    1MOL    C0R 1063   1.743   1.329   1.541
    1MOL    C0S 1064   1.604   1.467   1.401
    1MOL    H0T 1065   1.441   0.997   2.523
    1MOL    C0U 1066   1.837   1.328   1.434
    1MOL    C0V 1067   1.695   1.459   1.297
    1MOL    H0W 1068   1.504   1.512   1.385
    1MOL    C0X 1069   1.816   1.393   1.314
    1MOL    H0Y 1070   1.934   1.278   1.451
    1MOL    H0Z 1071   1.669   1.511   1.210
    1MOL    H10 1072   1.885   1.400   1.233
    1MOL    C00 1074   1.414   0.956   0.561
    1MOL    C01 1075   1.320   0.945   0.665
    1MOL    C02 1076   1.531   0.883   0.576
    1MOL    C03 1077   1.394   1.034   0.443
    1MOL    C04 1078   1.343   0.879   0.789
    1MOL    H05 1079   1.229   0.985   0.659
    1MOL    C06 1080   1.550   0.812   0.691
    1MOL    C07 1081   1.632   0.884   0.475
    1MOL    C08 1082   1.495   1.037   0.338
    1MOL    H09 1083   1.307   1.086   0.440
    1MOL    C0A 1084   1.253   0.882   0.896
    1MOL    C0B 1085   1.462   0.815   0.803
    1MOL    H0C 1086   1.638   0.759   0.706
    1MOL    H0D 1087   1.724   0.841   0.491
    1MOL    C0E 1088   1.616   0.958   0.355
    1MOL    C0F 1089   1.476   1.105   0.215
    1MOL    C0G 1090   1.280   0.826   1.023
    1MOL    H0H 1091   1.161   0.919   0.877
    1MOL    C0I 1092   1.491   0.748   0.931
    1MOL    C0J 1093   1.708   0.956   0.250
    1MOL    C0K 1094   1.574   1.098   0.109
    1MOL    H0M 1095   1.389   1.160   0.189
    1MOL    C0N 1096   1.399   0.753   1.039
    1MOL    H0O 1097   1.206   0.835   1.096
    1MOL    H0P 1098   1.589   0.702   0.950
    1MOL    H0Q 1099   1.796   0.899   0.261
    1MOL    C0R 1100   1.685   1.023   0.123
    1MOL    C0S 1101   1.553   1.166  -0.014
    1MOL    H0T 1102   1.423   0.706   1.125
    1MOL    C0U 1103   1.771   1.010   0.014
    1MOL    C0V 1104   1.644   1.163  -0.117
    1MOL    H0W 1105   1.461   1.218  -0.037
    1MOL    C0X 1106   1.749   1.073  -0.111
    1MOL    H0Y 1107   1.856   0.951   0.018
    1MOL    H0Z 1108   1.621   1.215  -0.213
    1MOL    H10 1109   1.824   1.070  -0.181
    1MOL    C00 1111   1.313   0.167   0.565
    1MOL    C01 1112   1.232   0.173   0.677
    1MOL    C02 1113   1.441   0.099   0.585
    1MOL    C03 1114   1.293   0.234   0.445
    1MOL    C04 1115   1.252   0.093   0.795
    1MOL    H05 1116   1.139   0.220   0.668
    1MOL    C06 1117   1.466   0.026   0.703
    1MOL    C07 1118   1.541   0.108   0.485
    1MOL    C08 1119   1.391   0.238   0.341
    1MOL    H09 1120   1.202   0.271   0.434
    1MOL    C0A 1121   1.156   0.086   0.898
    1MOL    C0B 1122   1.370   0.023   0.809
    1MOL    H0C 1123   1.555  -0.021   0.720
    1MOL    H0D 1124   1.624   0.062   0.508
    1MOL    C0E 1125   1.521   0.177   0.362
    1MOL    C0F 1126   1.380   0.309   0.219
    1MOL    C0G 1127   1.176   0.005   1.012
    1MOL    H0H 1128   1.062   0.148   0.889
    1MOL    C0I 1129   1.389  -0.055   0.928
    1MOL    C0J 1130   1.619   0.185   0.266
    1MOL    C0K 1131   1.482   0.312   0.119
    1MOL    H0M 1132   1.289   0.354   0.190
    1MOL    C0N 1133   1.298  -0.068   1.027
    1MOL    H0O 1134   1.099  -0.003   1.085
    1MOL    H0P 1135   1.480  -0.108   0.946
    1MOL    H0Q 1136   1.703   0.130   0.283
    1MOL    C0R 1137   1.602   0.254   0.141
    1MOL    C0S 1138   1.465   0.378  -0.001
    1MOL    H0T 1139   1.320  -0.132   1.105
    1MOL    C0U 1140   1.701   0.254   0.041
    1MOL    C0V 1141   1.564   0.382  -0.102
    1MOL    H0W 1142   1.372   0.426  -0.016
    1MOL    C0X 1143   1.690   0.318  -0.086
    1MOL    H0Y 1144   1.804   0.206   0.052
    1MOL    H0Z 1145   1.539   0.432  -0.193
    1MOL    H10 1146   1.765   0.320  -0.164
    1MOL    C00 1148   0.600   1.919   3.380
    1MOL    C01 1149   0.500   1.865   3.463
    1MOL    C02 1150   0.724   1.957   3.443
    1MOL    C03 1151   0.584   1.942   3.246
    1MOL    C04 1152   0.511   1.853   3.599
    1MOL    H05 1153   0.410   1.831   3.420
    1MOL    C06 1154   0.733   1.942   3.581
    1MOL    C07 1155   0.833   2.011   3.365
    1MOL    C08 1156   0.688   1.996   3.167
    1MOL    H09 1157   0.497   1.918   3.201
    1MOL    C0A 1158   0.404   1.799   3.679
    1MOL    C0B 1159   0.628   1.893   3.662
    1MOL    H0C 1160   0.823   1.962   3.628
    1MOL    H0D 1161   0.925   2.040   3.404
    1MOL    C0E 1162   0.813   2.025   3.224
    1MOL    C0F 1163   0.678   2.022   3.027
    1MOL    C0G 1164   0.425   1.770   3.817
    1MOL    H0H 1165   0.316   1.772   3.629
    1MOL    C0I 1166   0.639   1.879   3.800
    1MOL    C0J 1167   0.911   2.080   3.142
    1MOL    C0K 1168   0.778   2.071   2.944
    1MOL    H0M 1169   0.593   1.997   2.969
    1MOL    C0N 1170   0.543   1.810   3.874
    1MOL    H0O 1171   0.346   1.712   3.867
    1MOL    H0P 1172   0.729   1.906   3.849
    1MOL    H0Q 1173   1.000   2.113   3.180
    1MOL    C0R 1174   0.893   2.101   2.998
    1MOL    C0S 1175   0.759   2.088   2.804
    1MOL    H0T 1176   0.561   1.790   3.974
    1MOL    C0U 1177   0.992   2.154   2.914
    1MOL    C0V 1178   0.852   2.142   2.717
    1MOL    H0W 1179   0.658   2.066   2.768
    1MOL    C0X 1180   0.972   2.185   2.778
    1MOL    H0Y 1181   1.085   2.174   2.967
    1MOL    H0Z 1182   0.822   2.166   2.619
    1MOL    H10 1183   1.047   2.242   2.719
    1MOL    C00 1185   1.595   0.477   1.784
    1MOL    C01 1186   1.695   0.477   1.684
    1MOL    C02 1187   1.476   0.556   1.763
    1MOL    C03 1188   1.618   0.410   1.907
    1MOL    C04 1189   1.674   0.547   1.556
    1MOL    H05 1190   1.797   0.440   1.696
    1MOL    C06 1191   1.459   0.607   1.640
    1MOL    C07 1192   1.383   0.563   1.868
    1MOL    C08 1193   1.521   0.412   2.012
    1MOL    H09 1194   1.703   0.351   1.914
    1MOL    C0A 1195   1.773   0.549   1.461
    1MOL    C0B 1196   1.557   0.608   1.537
    1MOL    H0C 1197   1.366   0.646   1.623
    1MOL    H0D 1198   1.297   0.619   1.856
    1MOL    C0E 1199   1.404   0.491   1.992
    1MOL    C0F 1200   1.534   0.338   2.129
    1MOL    C0G 1201   1.761   0.615   1.339
    1MOL    H0H 1202   1.868   0.502   1.479
    1MOL    C0I 1203   1.536   0.670   1.412
    1MOL    C0J 1204   1.301   0.484   2.085
    1MOL    C0K 1205   1.433   0.345   2.232
    1MOL    H0M 1206   1.625   0.284   2.143
    1MOL    C0N 1207   1.635   0.674   1.312
    1MOL    H0O 1208   1.838   0.620   1.262
    1MOL    H0P 1209   1.442   0.712   1.389
    1MOL    H0Q 1210   1.205   0.530   2.073
    1MOL    C0R 1211   1.322   0.421   2.210
    1MOL    C0S 1212   1.437   0.267   2.355
    1MOL    H0T 1213   1.612   0.719   1.221
    1MOL    C0U 1214   1.220   0.419   2.308
    1MOL    C0V 1215   1.340   0.274   2.451
    1MOL    H0W 1216   1.535   0.215   2.375
    1MOL    C0X 1217   1.226   0.345   2.433
    1MOL    H0Y 1218   1.127   0.475   2.289
    1MOL    H0Z 1219   1.366   0.223   2.542
    1MOL    H10 1220   1.149   0.353   2.505
    1MOL    C00 1222   1.475   1.705   0.586
    1MOL    C01 1223   1.383   1.695   0.688
    1MOL    C02 1224   1.600   1.635   0.601
    1MOL    C03 1225   1.455   1.777   0.461
    1MOL    C04 1226   1.407   1.637   0.811
    1MOL    H05 1227   1.286   1.737   0.675
    1MOL    C06 1228   1.614   1.567   0.722
    1MOL    C07 1229   1.696   1.641   0.497
    1MOL    C08 1230   1.550   1.775   0.354
    1MOL    H09 1231   1.370   1.829   0.446
    1MOL    C0A 1232   1.303   1.625   0.905
    1MOL    C0B 1233   1.525   1.571   0.834
    1MOL    H0C 1234   1.696   1.501   0.731
    1MOL    H0D 1235   1.783   1.591   0.505
    1MOL    C0E 1236   1.673   1.707   0.376
    1MOL    C0F 1237   1.534   1.842   0.231
    1MOL    C0G 1238   1.319   1.564   1.033
    1MOL    H0H 1239   1.216   1.685   0.882
    1MOL    C0I 1240   1.540   1.502   0.957
    1MOL    C0J 1241   1.770   1.713   0.273
    1MOL    C0K 1242   1.639   1.859   0.127
    1MOL    H0M 1243   1.443   1.895   0.206
    1MOL    C0N 1244   1.442   1.499   1.056
    1MOL    H0O 1245   1.241   1.567   1.106
    1MOL    H0P 1246   1.628   1.444   0.976
    1MOL    H0Q 1247   1.869   1.669   0.295
    1MOL    C0R 1248   1.753   1.790   0.148
    1MOL    C0S 1249   1.626   1.927   0.006
    1MOL    H0T 1250   1.462   1.438   1.140
    1MOL    C0U 1251   1.860   1.805   0.056
    1MOL    C0V 1252   1.725   1.944  -0.091
    1MOL    H0W 1253   1.532   1.972  -0.005
    1MOL    C0X 1254   1.847   1.884  -0.063
    1MOL    H0Y 1255   1.952   1.751   0.081
    1MOL    H0Z 1256   1.703   1.999  -0.180
    1MOL    H10 1257   1.932   1.891  -0.128
    1MOL    C00 1259   0.608   0.154   1.785
    1MOL    C01 1260   0.707   0.213   1.698
    1MOL    C02 1261   0.486   0.117   1.724
    1MOL    C03 1262   0.620   0.145   1.923
    1MOL    C04 1263   0.689   0.246   1.561
    1MOL    H05 1264   0.800   0.241   1.737
    1MOL    C06 1265   0.482   0.132   1.584
    1MOL    C07 1266   0.383   0.059   1.801
    1MOL    C08 1267   0.521   0.084   2.004
    1MOL    H09 1268   0.714   0.174   1.960
    1MOL    C0A 1269   0.791   0.303   1.483
    1MOL    C0B 1270   0.579   0.199   1.503
    1MOL    H0C 1271   0.389   0.106   1.534
    1MOL    H0D 1272   0.299   0.021   1.764
    1MOL    C0E 1273   0.400   0.042   1.942
    1MOL    C0F 1274   0.541   0.068   2.140
    1MOL    C0G 1275   0.767   0.335   1.343
    1MOL    H0H 1276   0.881   0.333   1.517
    1MOL    C0I 1277   0.556   0.224   1.365
    1MOL    C0J 1278   0.308  -0.014   2.034
    1MOL    C0K 1279   0.449  -0.000   2.225
    1MOL    H0M 1280   0.630   0.101   2.185
    1MOL    C0N 1281   0.649   0.298   1.289
    1MOL    H0O 1282   0.842   0.394   1.293
    1MOL    H0P 1283   0.468   0.195   1.312
    1MOL    H0Q 1284   0.215  -0.043   1.992
    1MOL    C0R 1285   0.331  -0.044   2.171
    1MOL    C0S 1286   0.479  -0.021   2.360
    1MOL    H0T 1287   0.626   0.314   1.185
    1MOL    C0U 1288   0.240  -0.106   2.259
    1MOL    C0V 1289   0.388  -0.084   2.445
    1MOL    H0W 1290   0.569   0.015   2.399
    1MOL    C0X 1291   0.271  -0.135   2.391
    1MOL    H0Y 1292   0.149  -0.143   2.224
    1MOL    H0Z 1293   0.408  -0.100   2.553
    1MOL    H10 1294   0.203  -0.203   2.437
    1MOL    C00 1296   0.445   0.396   3.369
    1MOL    C01 1297   0.352   0.341   3.457
    1MOL    C02 1298   0.574   0.432   3.427
    1MOL    C03 1299   0.431   0.407   3.227
    1MOL    C04 1300   0.372   0.321   3.598
    1MOL    H05 1301   0.269   0.293   3.413
    1MOL    C06 1302   0.584   0.424   3.569
    1MOL    C07 1303   0.674   0.486   3.337
    1MOL    C08 1304   0.537   0.452   3.139
    1MOL    H09 1305   0.352   0.359   3.186
    1MOL    C0A 1306   0.275   0.255   3.673
    1MOL    C0B 1307   0.488   0.365   3.658
    1MOL    H0C 1308   0.669   0.462   3.621
    1MOL    H0D 1309   0.763   0.517   3.367
    1MOL    C0E 1310   0.656   0.499   3.195
    1MOL    C0F 1311   0.512   0.465   3.004
    1MOL    C0G 1312   0.285   0.253   3.815
    1MOL    H0H 1313   0.185   0.226   3.620
    1MOL    C0I 1314   0.501   0.353   3.796
    1MOL    C0J 1315   0.748   0.552   3.103
    1MOL    C0K 1316   0.612   0.505   2.910
    1MOL    H0M 1317   0.424   0.428   2.956
    1MOL    C0N 1318   0.404   0.301   3.875
    1MOL    H0O 1319   0.200   0.212   3.870
    1MOL    H0P 1320   0.591   0.390   3.839
    1MOL    H0Q 1321   0.832   0.598   3.144
    1MOL    C0R 1322   0.734   0.549   2.964
    1MOL    C0S 1323   0.600   0.507   2.771
    1MOL    H0T 1324   0.410   0.304   3.981
    1MOL    C0U 1325   0.831   0.603   2.876
    1MOL    C0V 1326   0.698   0.565   2.695
    1MOL    H0W 1327   0.510   0.467   2.729
    1MOL    C0X 1328   0.814   0.621   2.742
    1MOL    H0Y 1329   0.922   0.649   2.918
    1MOL    H0Z 1330   0.683   0.554   2.590
    1MOL    H10 1331   0.884   0.664   2.671
    1MOL    C00 1333   1.787   1.157   3.371
    1MOL    C01 1334   1.697   1.101   3.464
    1MOL    C02 1335   1.902   1.216   3.431
    1MOL    C03 1336   1.769   1.160   3.232
    1MOL    C04 1337   1.702   1.094   3.600
    1MOL    H05 1338   1.611   1.053   3.427
    1MOL    C06 1339   1.911   1.206   3.575
    1MOL    C07 1340   1.999   1.279   3.344
    1MOL    C08 1341   1.860   1.226   3.150
    1MOL    H09 1342   1.697   1.108   3.190
    1MOL    C0A 1343   1.595   1.034   3.678
    1MOL    C0B 1344   1.814   1.143   3.659
    1MOL    H0C 1345   1.993   1.257   3.625
    1MOL    H0D 1346   2.079   1.317   3.388
    1MOL    C0E 1347   1.982   1.276   3.208
    1MOL    C0F 1348   1.846   1.231   3.009
    1MOL    C0G 1349   1.610   1.023   3.814
    1MOL    H0H 1350   1.511   0.979   3.632
    1MOL    C0I 1351   1.826   1.138   3.799
    1MOL    C0J 1352   2.079   1.323   3.116
    1MOL    C0K 1353   1.941   1.292   2.926
    1MOL    H0M 1354   1.771   1.173   2.961
    1MOL    C0N 1355   1.723   1.078   3.874
    1MOL    H0O 1356   1.537   0.969   3.880
    1MOL    H0P 1357   1.912   1.177   3.848
    1MOL    H0Q 1358   2.163   1.368   3.156
    1MOL    C0R 1359   2.054   1.348   2.980
    1MOL    C0S 1360   1.920   1.302   2.788
    1MOL    H0T 1361   1.737   1.076   3.979
    1MOL    C0U 1362   2.148   1.413   2.893
    1MOL    C0V 1363   2.013   1.371   2.703
    1MOL    H0W 1364   1.829   1.257   2.737
    1MOL    C0X 1365   2.126   1.435   2.757
    1MOL    H0Y 1366   2.236   1.447   2.942
    1MOL    H0Z 1367   1.991   1.370   2.601
    1MOL    H10 1368   2.199   1.489   2.698
    1MOL    C00 1370   1.746   0.819   1.952
    1MOL    C01 1371   1.656   0.757   2.041
    1MOL    C02 1372   1.870   0.865   2.007
    1MOL    C03 1373   1.726   0.823   1.809
    1MOL    C04 1374   1.680   0.744   2.180
    1MOL    H05 1375   1.563   0.718   2.020
    1MOL    C06 1376   1.891   0.844   2.146
    1MOL    C07 1377   1.963   0.921   1.920
    1MOL    C08 1378   1.823   0.882   1.724
    1MOL    H09 1379   1.638   0.785   1.774
    1MOL    C0A 1380   1.584   0.682   2.267
    1MOL    C0B 1381   1.798   0.782   2.230
    1MOL    H0C 1382   1.979   0.875   2.181
    1MOL    H0D 1383   2.045   0.965   1.953
    1MOL    C0E 1384   1.943   0.928   1.782
    1MOL    C0F 1385   1.814   0.902   1.582
    1MOL    C0G 1386   1.604   0.661   2.403
    1MOL    H0H 1387   1.488   0.644   2.225
    1MOL    C0I 1388   1.816   0.775   2.370
    1MOL    C0J 1389   2.039   0.993   1.701
    1MOL    C0K 1390   1.910   0.968   1.502
    1MOL    H0M 1391   1.727   0.864   1.537
    1MOL    C0N 1392   1.719   0.721   2.456
    1MOL    H0O 1393   1.525   0.606   2.462
    1MOL    H0P 1394   1.908   0.819   2.410
    1MOL    H0Q 1395   2.133   1.033   1.738
    1MOL    C0R 1396   2.022   1.010   1.560
    1MOL    C0S 1397   1.890   0.983   1.366
    1MOL    H0T 1398   1.740   0.733   2.562
    1MOL    C0U 1399   2.118   1.080   1.487
    1MOL    C0V 1400   1.983   1.051   1.288
    1MOL    H0W 1401   1.790   0.951   1.323
    1MOL    C0X 1402   2.103   1.103   1.348
    1MOL    H0Y 1403   2.208   1.112   1.538
    1MOL    H0Z 1404   1.972   1.048   1.180
    1MOL    H10 1405   2.161   1.171   1.289
    1MOL    C00 1407   0.136   1.706   1.781
    1MOL    C01 1408   0.232   1.757   1.691
    1MOL    C02 1409   0.011   1.661   1.724
    1MOL    C03 1410   0.159   1.700   1.918
    1MOL    C04 1411   0.207   1.778   1.549
    1MOL    H05 1412   0.323   1.788   1.729
    1MOL    C06 1413  -0.010   1.683   1.582
    1MOL    C07 1414  -0.075   1.597   1.809
    1MOL    C08 1415   0.063   1.646   2.009
    1MOL    H09 1416   0.253   1.736   1.959
    1MOL    C0A 1417   0.308   1.839   1.468
    1MOL    C0B 1418   0.089   1.736   1.493
    1MOL    H0C 1419  -0.105   1.664   1.544
    1MOL    H0D 1420  -0.162   1.564   1.770
    1MOL    C0E 1421  -0.056   1.592   1.951
    1MOL    C0F 1422   0.075   1.640   2.146
    1MOL    C0G 1423   0.284   1.852   1.324
    1MOL    H0H 1424   0.390   1.884   1.511
    1MOL    C0I 1425   0.067   1.746   1.356
    1MOL    C0J 1426  -0.152   1.540   2.034
    1MOL    C0K 1427  -0.020   1.571   2.228
    1MOL    H0M 1428   0.162   1.681   2.194
    1MOL    C0N 1429   0.163   1.806   1.268
    1MOL    H0O 1430   0.363   1.898   1.268
    1MOL    H0P 1431  -0.025   1.727   1.309
    1MOL    H0Q 1432  -0.241   1.513   1.995
    1MOL    C0R 1433  -0.132   1.520   2.168
    1MOL    C0S 1434  -0.008   1.562   2.372
    1MOL    H0T 1435   0.132   1.820   1.168
    1MOL    C0U 1436  -0.235   1.463   2.243
    1MOL    C0V 1437  -0.115   1.512   2.448
    1MOL    H0W 1438   0.091   1.598   2.419
    1MOL    C0X 1439  -0.229   1.462   2.384
    1MOL    H0Y 1440  -0.319   1.415   2.192
    1MOL    H0Z 1441  -0.102   1.506   2.556
    1MOL    H10 1442  -0.308   1.413   2.443
    1MOL    C00 1444  -0.010   1.952   3.335
    1MOL    C01 1445  -0.102   1.893   3.419
    1MOL    C02 1446   0.114   1.991   3.394
    1MOL    C03 1447  -0.027   1.962   3.196
    1MOL    C04 1448  -0.089   1.882   3.557
    1MOL    H05 1449  -0.198   1.868   3.385
    1MOL    C06 1450   0.132   1.969   3.530
    1MOL    C07 1451   0.209   2.056   3.310
    1MOL    C08 1452   0.073   2.015   3.114
    1MOL    H09 1453  -0.115   1.935   3.157
    1MOL    C0A 1454  -0.199   1.832   3.634
    1MOL    C0B 1455   0.026   1.924   3.617
    1MOL    H0C 1456   0.218   1.988   3.579
    1MOL    H0D 1457   0.299   2.089   3.348
    1MOL    C0E 1458   0.194   2.062   3.171
    1MOL    C0F 1459   0.060   2.022   2.976
    1MOL    C0G 1460  -0.186   1.816   3.770
    1MOL    H0H 1461  -0.290   1.797   3.580
    1MOL    C0I 1462   0.036   1.907   3.759
    1MOL    C0J 1463   0.293   2.106   3.085
    1MOL    C0K 1464   0.159   2.080   2.892
    1MOL    H0M 1465  -0.027   1.989   2.924
    1MOL    C0N 1466  -0.076   1.865   3.837
    1MOL    H0O 1467  -0.264   1.763   3.823
    1MOL    H0P 1468   0.132   1.933   3.797
    1MOL    H0Q 1469   0.382   2.137   3.121
    1MOL    C0R 1470   0.276   2.117   2.946
    1MOL    C0S 1471   0.140   2.094   2.753
    1MOL    H0T 1472  -0.065   1.875   3.942
    1MOL    C0U 1473   0.375   2.181   2.865
    1MOL    C0V 1474   0.241   2.140   2.670
    1MOL    H0W 1475   0.050   2.049   2.713
    1MOL    C0X 1476   0.357   2.194   2.727
    1MOL    H0Y 1477   0.449   2.226   2.914
    1MOL    H0Z 1478   0.216   2.127   2.570
    1MOL    H10 1479   0.425   2.243   2.669
    1MOL    C00 1481   1.719   0.394   3.360
    1MOL    C01 1482   1.623   0.343   3.450
    1MOL    C02 1483   1.849   0.425   3.418
    1MOL    C03 1484   1.686   0.419   3.220
    1MOL    C04 1485   1.638   0.334   3.593
    1MOL    H05 1486   1.535   0.307   3.419
    1MOL    C06 1487   1.858   0.415   3.555
    1MOL    C07 1488   1.950   0.475   3.329
    1MOL    C08 1489   1.794   0.457   3.137
    1MOL    H09 1490   1.591   0.401   3.198
    1MOL    C0A 1491   1.543   0.283   3.684
    1MOL    C0B 1492   1.759   0.369   3.642
    1MOL    H0C 1493   1.952   0.445   3.598
    1MOL    H0D 1494   2.036   0.498   3.375
    1MOL    C0E 1495   1.923   0.493   3.192
    1MOL    C0F 1496   1.781   0.466   2.997
    1MOL    C0G 1497   1.564   0.274   3.823
    1MOL    H0H 1498   1.445   0.252   3.647
    1MOL    C0I 1499   1.782   0.364   3.782
    1MOL    C0J 1500   2.019   0.550   3.102
    1MOL    C0K 1501   1.880   0.518   2.906
    1MOL    H0M 1502   1.695   0.442   2.943
    1MOL    C0N 1503   1.683   0.326   3.872
    1MOL    H0O 1504   1.496   0.231   3.899
    1MOL    H0P 1505   1.883   0.387   3.815
    1MOL    H0Q 1506   2.116   0.578   3.136
    1MOL    C0R 1507   1.995   0.566   2.962
    1MOL    C0S 1508   1.864   0.526   2.765
    1MOL    H0T 1509   1.714   0.321   3.978
    1MOL    C0U 1510   2.095   0.627   2.882
    1MOL    C0V 1511   1.963   0.587   2.683
    1MOL    H0W 1512   1.763   0.495   2.722
    1MOL    C0X 1513   2.076   0.636   2.741
    1MOL    H0Y 1514   2.193   0.663   2.921
    1MOL    H0Z 1515   1.941   0.598   2.582
    1MOL    H10 1516   2.151   0.685   2.683
    1MOL    C00 1518   1.673   0.495   0.550
    1MOL    C01 1519   1.571   0.445   0.635
    1MOL    C02 1520   1.799   0.530   0.610
    1MOL    C03 1521   1.650   0.520   0.413
    1MOL    C04 1522   1.595   0.421   0.773
    1MOL    H05 1523   1.474   0.415   0.602
    1MOL    C06 1524   1.809   0.515   0.750
    1MOL    C07 1525   1.899   0.585   0.527
    1MOL    C08 1526   1.751   0.573   0.330
    1MOL    H09 1527   1.555   0.497   0.382
    1MOL    C0A 1528   1.491   0.363   0.856
    1MOL    C0B 1529   1.710   0.462   0.832
    1MOL    H0C 1530   1.899   0.553   0.791
    1MOL    H0D 1531   1.991   0.612   0.569
    1MOL    C0E 1532   1.872   0.614   0.391
    1MOL    C0F 1533   1.737   0.594   0.190
    1MOL    C0G 1534   1.501   0.357   0.993
    1MOL    H0H 1535   1.407   0.321   0.810
    1MOL    C0I 1536   1.720   0.451   0.973
    1MOL    C0J 1537   1.970   0.667   0.305
    1MOL    C0K 1538   1.839   0.649   0.108
    1MOL    H0M 1539   1.655   0.560   0.138
    1MOL    C0N 1540   1.617   0.405   1.057
    1MOL    H0O 1541   1.423   0.313   1.044
    1MOL    H0P 1542   1.821   0.483   1.008
    1MOL    H0Q 1543   2.059   0.703   0.338
    1MOL    C0R 1544   1.959   0.687   0.167
    1MOL    C0S 1545   1.826   0.663  -0.034
    1MOL    H0T 1546   1.634   0.389   1.159
    1MOL    C0U 1547   2.057   0.747   0.089
    1MOL    C0V 1548   1.925   0.723  -0.114
    1MOL    H0W 1549   1.733   0.628  -0.082
    1MOL    C0X 1550   2.038   0.770  -0.048
    1MOL    H0Y 1551   2.149   0.779   0.133
    1MOL    H0Z 1552   1.901   0.734  -0.222
    1MOL    H10 1553   2.109   0.827  -0.107
    1MOL    C00 1555   1.755   1.259   0.553
    1MOL    C01 1556   1.658   1.190   0.638
    1MOL    C02 1557   1.880   1.302   0.612
    1MOL    C03 1558   1.730   1.285   0.412
    1MOL    C04 1559   1.677   1.180   0.780
    1MOL    H05 1560   1.556   1.163   0.610
    1MOL    C06 1561   1.897   1.276   0.752
    1MOL    C07 1562   1.983   1.358   0.525
    1MOL    C08 1563   1.833   1.336   0.327
    1MOL    H09 1564   1.640   1.261   0.366
    1MOL    C0A 1565   1.579   1.125   0.864
    1MOL    C0B 1566   1.792   1.222   0.836
    1MOL    H0C 1567   1.981   1.314   0.804
    1MOL    H0D 1568   2.074   1.388   0.560
    1MOL    C0E 1569   1.959   1.381   0.383
    1MOL    C0F 1570   1.808   1.361   0.191
    1MOL    C0G 1571   1.594   1.115   1.005
    1MOL    H0H 1572   1.489   1.096   0.819
    1MOL    C0I 1573   1.805   1.214   0.979
    1MOL    C0J 1574   2.044   1.443   0.290
    1MOL    C0K 1575   1.908   1.414   0.096
    1MOL    H0M 1576   1.718   1.325   0.148
    1MOL    C0N 1577   1.705   1.171   1.062
    1MOL    H0O 1578   1.504   1.077   1.049
    1MOL    H0P 1579   1.903   1.247   1.016
    1MOL    H0Q 1580   2.140   1.476   0.326
    1MOL    C0R 1581   2.023   1.460   0.151
    1MOL    C0S 1582   1.879   1.429  -0.044
    1MOL    H0T 1583   1.722   1.188   1.178
    1MOL    C0U 1584   2.116   1.523   0.061
    1MOL    C0V 1585   1.979   1.474  -0.128
    1MOL    H0W 1586   1.780   1.406  -0.085
    1MOL    C0X 1587   2.097   1.528  -0.079
    1MOL    H0Y 1588   2.212   1.562   0.107
    1MOL    H0Z 1589   1.958   1.472  -0.241
    1MOL    H10 1590   2.170   1.572  -0.141
    1MOL    C00 1592   1.873   0.163   1.786
    1MOL    C01 1593   1.968   0.215   1.698
    1MOL    C02 1594   1.748   0.116   1.731
    1MOL    C03 1595   1.898   0.140   1.926
    1MOL    C04 1596   1.946   0.231   1.557
    1MOL    H05 1597   2.056   0.258   1.729
    1MOL    C06 1598   1.726   0.135   1.597
    1MOL    C07 1599   1.650   0.067   1.816
    1MOL    C08 1600   1.793   0.092   2.012
    1MOL    H09 1601   1.986   0.161   1.960
    1MOL    C0A 1602   2.038   0.297   1.476
    1MOL    C0B 1603   1.824   0.188   1.509
    1MOL    H0C 1604   1.635   0.101   1.555
    1MOL    H0D 1605   1.564   0.036   1.774
    1MOL    C0E 1606   1.670   0.050   1.953
    1MOL    C0F 1607   1.803   0.070   2.149
    1MOL    C0G 1608   2.017   0.324   1.339
    1MOL    H0H 1609   2.129   0.328   1.518
    1MOL    C0I 1610   1.802   0.197   1.368
    1MOL    C0J 1611   1.566   0.004   2.035
    1MOL    C0K 1612   1.699   0.016   2.228
    1MOL    H0M 1613   1.890   0.098   2.208
    1MOL    C0N 1614   1.896   0.267   1.284
    1MOL    H0O 1615   2.079   0.380   1.283
    1MOL    H0P 1616   1.707   0.155   1.327
    1MOL    H0Q 1617   1.470  -0.023   1.998
    1MOL    C0R 1618   1.580  -0.014   2.173
    1MOL    C0S 1619   1.717  -0.004   2.369
    1MOL    H0T 1620   1.867   0.269   1.181
    1MOL    C0U 1621   1.481  -0.072   2.254
    1MOL    C0V 1622   1.617  -0.060   2.451
    1MOL    H0W 1623   1.809   0.008   2.424
    1MOL    C0X 1624   1.494  -0.090   2.393
    1MOL    H0Y 1625   1.384  -0.099   2.200
    1MOL    H0Z 1626   1.633  -0.070   2.556
    1MOL    H10 1627   1.411  -0.123   2.448
    1MOL    C00 1629  -0.071   2.044   0.539
    1MOL    C01 1630  -0.172   1.988   0.621
    1MOL    C02 1631   0.057   2.081   0.598
    1MOL    C03 1632  -0.087   2.057   0.400
    1MOL    C04 1633  -0.159   1.967   0.760
    1MOL    H05 1634  -0.262   1.957   0.576
    1MOL    C06 1635   0.064   2.069   0.742
    1MOL    C07 1636   0.161   2.130   0.511
    1MOL    C08 1637   0.015   2.114   0.322
    1MOL    H09 1638  -0.172   2.025   0.352
    1MOL    C0A 1639  -0.259   1.907   0.839
    1MOL    C0B 1640  -0.036   2.003   0.813
    1MOL    H0C 1641   0.157   2.102   0.783
    1MOL    H0D 1642   0.248   2.154   0.552
    1MOL    C0E 1643   0.141   2.141   0.373
    1MOL    C0F 1644  -0.001   2.138   0.184
    1MOL    C0G 1645  -0.230   1.866   0.974
    1MOL    H0H 1646  -0.352   1.874   0.788
    1MOL    C0I 1647  -0.016   1.975   0.952
    1MOL    C0J 1648   0.242   2.194   0.288
    1MOL    C0K 1649   0.100   2.193   0.097
    1MOL    H0M 1650  -0.096   2.112   0.147
    1MOL    C0N 1651  -0.113   1.908   1.036
    1MOL    H0O 1652  -0.308   1.803   1.021
    1MOL    H0P 1653   0.079   1.990   1.003
    1MOL    H0Q 1654   0.338   2.215   0.321
    1MOL    C0R 1655   0.221   2.220   0.150
    1MOL    C0S 1656   0.076   2.217  -0.040
    1MOL    H0T 1657  -0.092   1.879   1.137
    1MOL    C0U 1658   0.320   2.284   0.075
    1MOL    C0V 1659   0.174   2.274  -0.121
    1MOL    H0W 1660  -0.025   2.192  -0.083
    1MOL    C0X 1661   0.293   2.311  -0.064
    1MOL    H0Y 1662   0.421   2.302   0.115
    1MOL    H0Z 1663   0.141   2.281  -0.227
    1MOL    H10 1664   0.368   2.360  -0.113
    1MOL    C00 1666   0.414   1.266   1.783
    1MOL    C01 1667   0.507   1.266   1.684
    1MOL    C02 1668   0.289   1.339   1.761
    1MOL    C03 1669   0.431   1.203   1.909
    1MOL    C04 1670   0.483   1.325   1.555
    1MOL    H05 1671   0.592   1.207   1.696
    1MOL    C06 1672   0.270   1.397   1.638
    1MOL    C07 1673   0.188   1.333   1.858
    1MOL    C08 1674   0.328   1.201   2.010
    1MOL    H09 1675   0.520   1.163   1.929
    1MOL    C0A 1676   0.580   1.323   1.457
    1MOL    C0B 1677   0.365   1.388   1.529
    1MOL    H0C 1678   0.181   1.451   1.625
    1MOL    H0D 1679   0.096   1.375   1.840
    1MOL    C0E 1680   0.203   1.268   1.983
    1MOL    C0F 1681   0.342   1.133   2.134
    1MOL    C0G 1682   0.567   1.378   1.329
    1MOL    H0H 1683   0.673   1.280   1.473
    1MOL    C0I 1684   0.348   1.448   1.404
    1MOL    C0J 1685   0.108   1.263   2.083
    1MOL    C0K 1686   0.241   1.127   2.234
    1MOL    H0M 1687   0.426   1.086   2.156
    1MOL    C0N 1688   0.445   1.442   1.298
    1MOL    H0O 1689   0.648   1.374   1.262
    1MOL    H0P 1690   0.259   1.500   1.388
    1MOL    H0Q 1691   0.015   1.314   2.069
    1MOL    C0R 1692   0.128   1.198   2.216
    1MOL    C0S 1693   0.259   1.062   2.357
    1MOL    H0T 1694   0.419   1.490   1.203
    1MOL    C0U 1695   0.041   1.209   2.326
    1MOL    C0V 1696   0.163   1.057   2.457
    1MOL    H0W 1697   0.352   1.003   2.368
    1MOL    C0X 1698   0.054   1.143   2.446
    1MOL    H0Y 1699  -0.041   1.280   2.319
    1MOL    H0Z 1700   0.173   0.994   2.547
    1MOL    H10 1701  -0.016   1.160   2.526
    1MOL    C00 1703   0.352   0.945   0.365
    1MOL    C01 1704   0.447   0.949   0.261
    1MOL    C02 1705   0.224   1.006   0.347
    1MOL    C03 1706   0.367   0.864   0.485
    1MOL    C04 1707   0.423   1.022   0.144
    1MOL    H05 1708   0.538   0.897   0.266
    1MOL    C06 1709   0.197   1.069   0.228
    1MOL    C07 1710   0.124   1.001   0.443
    1MOL    C08 1711   0.276   0.867   0.592
    1MOL    H09 1712   0.451   0.801   0.494
    1MOL    C0A 1713   0.513   1.032   0.037
    1MOL    C0B 1714   0.297   1.084   0.126
    1MOL    H0C 1715   0.112   1.122   0.218
    1MOL    H0D 1716   0.024   1.037   0.431
    1MOL    C0E 1717   0.151   0.937   0.572
    1MOL    C0F 1718   0.293   0.797   0.713
    1MOL    C0G 1719   0.491   1.107  -0.080
    1MOL    H0H 1720   0.609   0.985   0.048
    1MOL    C0I 1721   0.272   1.157   0.006
    1MOL    C0J 1722   0.059   0.931   0.675
    1MOL    C0K 1723   0.200   0.804   0.819
    1MOL    H0M 1724   0.382   0.741   0.731
    1MOL    C0N 1725   0.364   1.164  -0.097
    1MOL    H0O 1726   0.558   1.125  -0.150
    1MOL    H0P 1727   0.171   1.199  -0.003
    1MOL    H0Q 1728  -0.036   0.971   0.665
    1MOL    C0R 1729   0.083   0.870   0.802
    1MOL    C0S 1730   0.218   0.742   0.949
    1MOL    H0T 1731   0.341   1.232  -0.182
    1MOL    C0U 1732  -0.004   0.882   0.910
    1MOL    C0V 1733   0.121   0.746   1.053
    1MOL    H0W 1734   0.313   0.686   0.968
    1MOL    C0X 1735   0.001   0.816   1.033
    1MOL    H0Y 1736  -0.081   0.953   0.906
    1MOL    H0Z 1737   0.143   0.682   1.134
    1MOL    H10 1738  -0.065   0.846   1.106
    1MOL    C00 1740   0.457   1.610   3.178
    1MOL    C01 1741   0.560   1.611   3.078
    1MOL    C02 1742   0.338   1.682   3.152
    1MOL    C03 1743   0.467   1.541   3.303
    1MOL    C04 1744   0.542   1.673   2.955
    1MOL    H05 1745   0.647   1.558   3.091
    1MOL    C06 1746   0.330   1.753   3.034
    1MOL    C07 1747   0.230   1.677   3.246
    1MOL    C08 1748   0.365   1.538   3.398
    1MOL    H09 1749   0.550   1.493   3.332
    1MOL    C0A 1750   0.644   1.666   2.855
    1MOL    C0B 1751   0.425   1.741   2.930
    1MOL    H0C 1752   0.241   1.806   3.015
    1MOL    H0D 1753   0.149   1.733   3.227
    1MOL    C0E 1754   0.243   1.609   3.370
    1MOL    C0F 1755   0.379   1.480   3.523
    1MOL    C0G 1756   0.623   1.730   2.731
    1MOL    H0H 1757   0.736   1.615   2.879
    1MOL    C0I 1758   0.400   1.800   2.808
    1MOL    C0J 1759   0.150   1.614   3.477
    1MOL    C0K 1760   0.280   1.490   3.628
    1MOL    H0M 1761   0.466   1.431   3.551
    1MOL    C0N 1762   0.500   1.797   2.704
    1MOL    H0O 1763   0.696   1.730   2.649
    1MOL    H0P 1764   0.309   1.845   2.784
    1MOL    H0Q 1765   0.058   1.665   3.461
    1MOL    C0R 1766   0.165   1.554   3.603
    1MOL    C0S 1767   0.301   1.429   3.757
    1MOL    H0T 1768   0.482   1.838   2.600
    1MOL    C0U 1769   0.053   1.540   3.694
    1MOL    C0V 1770   0.194   1.427   3.853
    1MOL    H0W 1771   0.398   1.388   3.776
    1MOL    C0X 1772   0.072   1.481   3.817
    1MOL    H0Y 1773  -0.035   1.588   3.673
    1MOL    H0Z 1774   0.220   1.374   3.941
    1MOL    H10 1775  -0.018   1.496   3.890
    1MOL    C00 1777   0.067   0.162   0.594
    1MOL    C01 1778  -0.028   0.165   0.701
    1MOL    C02 1779   0.193   0.089   0.612
    1MOL    C03 1780   0.047   0.233   0.471
    1MOL    C04 1781  -0.003   0.091   0.824
    1MOL    H05 1782  -0.120   0.217   0.710
    1MOL    C06 1783   0.209   0.022   0.735
    1MOL    C07 1784   0.284   0.079   0.507
    1MOL    C08 1785   0.145   0.234   0.369
    1MOL    H09 1786  -0.037   0.285   0.460
    1MOL    C0A 1787  -0.101   0.085   0.920
    1MOL    C0B 1788   0.113   0.022   0.840
    1MOL    H0C 1789   0.299  -0.038   0.754
    1MOL    H0D 1790   0.367   0.023   0.522
    1MOL    C0E 1791   0.263   0.157   0.388
    1MOL    C0F 1792   0.128   0.307   0.250
    1MOL    C0G 1793  -0.084   0.003   1.038
    1MOL    H0H 1794  -0.191   0.141   0.905
    1MOL    C0I 1795   0.132  -0.052   0.956
    1MOL    C0J 1796   0.358   0.162   0.285
    1MOL    C0K 1797   0.230   0.311   0.149
    1MOL    H0M 1798   0.048   0.363   0.240
    1MOL    C0N 1799   0.033  -0.070   1.052
    1MOL    H0O 1800  -0.169  -0.013   1.107
    1MOL    H0P 1801   0.225  -0.107   0.975
    1MOL    H0Q 1802   0.443   0.107   0.296
    1MOL    C0R 1803   0.345   0.237   0.169
    1MOL    C0S 1804   0.216   0.382   0.028
    1MOL    H0T 1805   0.053  -0.122   1.134
    1MOL    C0U 1806   0.449   0.243   0.073
    1MOL    C0V 1807   0.316   0.389  -0.071
    1MOL    H0W 1808   0.117   0.431   0.003
    1MOL    C0X 1809   0.433   0.315  -0.046
    1MOL    H0Y 1810   0.541   0.192   0.097
    1MOL    H0Z 1811   0.310   0.440  -0.164
    1MOL    H10 1812   0.520   0.331  -0.108
    1MOL    C00 1814   0.188   0.842   3.387
    1MOL    C01 1815   0.085   0.842   3.486
    1MOL    C02 1816   0.306   0.768   3.413
    1MOL    C03 1817   0.174   0.913   3.262
    1MOL    C04 1818   0.099   0.777   3.613
    1MOL    H05 1819  -0.005   0.896   3.475
    1MOL    C06 1820   0.320   0.701   3.537
    1MOL    C07 1821   0.407   0.775   3.310
    1MOL    C08 1822   0.267   0.910   3.159
    1MOL    H09 1823   0.080   0.959   3.239
    1MOL    C0A 1824  -0.003   0.786   3.712
    1MOL    C0B 1825   0.215   0.705   3.635
    1MOL    H0C 1826   0.406   0.644   3.544
    1MOL    H0D 1827   0.496   0.731   3.325
    1MOL    C0E 1828   0.390   0.841   3.185
    1MOL    C0F 1829   0.257   0.979   3.031
    1MOL    C0G 1830   0.006   0.714   3.831
    1MOL    H0H 1831  -0.092   0.844   3.683
    1MOL    C0I 1832   0.226   0.637   3.755
    1MOL    C0J 1833   0.484   0.839   3.079
    1MOL    C0K 1834   0.359   0.974   2.929
    1MOL    H0M 1835   0.168   1.031   3.006
    1MOL    C0N 1836   0.124   0.638   3.853
    1MOL    H0O 1837  -0.082   0.715   3.902
    1MOL    H0P 1838   0.320   0.581   3.776
    1MOL    H0Q 1839   0.575   0.795   3.094
    1MOL    C0R 1840   0.472   0.900   2.948
    1MOL    C0S 1841   0.340   1.035   2.804
    1MOL    H0T 1842   0.137   0.586   3.944
    1MOL    C0U 1843   0.572   0.891   2.848
    1MOL    C0V 1844   0.442   1.038   2.706
    1MOL    H0W 1845   0.246   1.078   2.774
    1MOL    C0X 1846   0.559   0.962   2.728
    1MOL    H0Y 1847   0.663   0.832   2.866
    1MOL    H0Z 1848   0.419   1.091   2.606
    1MOL    H10 1849   0.636   0.970   2.656
    1MOL    C00 1851   0.345   0.479   1.776
    1MOL    C01 1852   0.442   0.491   1.677
    1MOL    C02 1853   0.223   0.557   1.760
    1MOL    C03 1854   0.360   0.396   1.890
    1MOL    C04 1855   0.420   0.561   1.554
    1MOL    H05 1856   0.530   0.433   1.679
    1MOL    C06 1857   0.205   0.630   1.643
    1MOL    C07 1858   0.122   0.544   1.863
    1MOL    C08 1859   0.265   0.389   1.993
    1MOL    H09 1860   0.445   0.347   1.911
    1MOL    C0A 1861   0.518   0.562   1.449
    1MOL    C0B 1862   0.304   0.632   1.543
    1MOL    H0C 1863   0.117   0.684   1.635
    1MOL    H0D 1864   0.033   0.591   1.859
    1MOL    C0E 1865   0.146   0.465   1.976
    1MOL    C0F 1866   0.278   0.317   2.110
    1MOL    C0G 1867   0.499   0.635   1.327
    1MOL    H0H 1868   0.608   0.509   1.461
    1MOL    C0I 1869   0.289   0.708   1.424
    1MOL    C0J 1870   0.049   0.465   2.073
    1MOL    C0K 1871   0.179   0.318   2.217
    1MOL    H0M 1872   0.362   0.261   2.131
    1MOL    C0N 1873   0.377   0.707   1.318
    1MOL    H0O 1874   0.566   0.636   1.246
    1MOL    H0P 1875   0.199   0.766   1.424
    1MOL    H0Q 1876  -0.045   0.512   2.059
    1MOL    C0R 1877   0.067   0.388   2.192
    1MOL    C0S 1878   0.183   0.247   2.339
    1MOL    H0T 1879   0.353   0.757   1.229
    1MOL    C0U 1880  -0.036   0.393   2.289
    1MOL    C0V 1881   0.084   0.238   2.434
    1MOL    H0W 1882   0.273   0.202   2.354
    1MOL    C0X 1883  -0.025   0.318   2.409
    1MOL    H0Y 1884  -0.124   0.451   2.280
    1MOL    H0Z 1885   0.102   0.188   2.521
    1MOL    H10 1886  -0.097   0.314   2.481
    1MOL    C00 1888   0.463   2.027   1.764
    1MOL    C01 1889   0.556   2.037   1.658
    1MOL    C02 1890   0.338   2.096   1.741
    1MOL    C03 1891   0.489   1.965   1.886
    1MOL    C04 1892   0.539   2.102   1.535
    1MOL    H05 1893   0.650   1.982   1.668
    1MOL    C06 1894   0.325   2.169   1.622
    1MOL    C07 1895   0.240   2.089   1.841
    1MOL    C08 1896   0.395   1.956   1.989
    1MOL    H09 1897   0.582   1.924   1.907
    1MOL    C0A 1898   0.639   2.109   1.434
    1MOL    C0B 1899   0.424   2.172   1.517
    1MOL    H0C 1900   0.233   2.220   1.602
    1MOL    H0D 1901   0.147   2.138   1.832
    1MOL    C0E 1902   0.267   2.021   1.970
    1MOL    C0F 1903   0.412   1.883   2.110
    1MOL    C0G 1904   0.620   2.188   1.318
    1MOL    H0H 1905   0.726   2.056   1.443
    1MOL    C0I 1906   0.403   2.248   1.395
    1MOL    C0J 1907   0.182   2.031   2.077
    1MOL    C0K 1908   0.323   1.896   2.220
    1MOL    H0M 1909   0.501   1.824   2.119
    1MOL    C0N 1910   0.501   2.255   1.296
    1MOL    H0O 1911   0.701   2.189   1.247
    1MOL    H0P 1912   0.308   2.300   1.380
    1MOL    H0Q 1913   0.088   2.081   2.074
    1MOL    C0R 1914   0.208   1.967   2.204
    1MOL    C0S 1915   0.347   1.832   2.345
    1MOL    H0T 1916   0.482   2.330   1.215
    1MOL    C0U 1917   0.116   1.976   2.308
    1MOL    C0V 1918   0.246   1.833   2.445
    1MOL    H0W 1919   0.430   1.765   2.355
    1MOL    C0X 1920   0.131   1.906   2.432
    1MOL    H0Y 1921   0.025   2.020   2.286
    1MOL    H0Z 1922   0.248   1.768   2.534
    1MOL    H10 1923   0.047   1.912   2.496
    1MOL    C00 1925   0.303   0.070   3.175
    1MOL    C01 1926   0.401   0.075   3.073
    1MOL    C02 1927   0.179   0.144   3.157
    1MOL    C03 1928   0.322  -0.009   3.295
    1MOL    C04 1929   0.376   0.142   2.949
    1MOL    H05 1930   0.488   0.022   3.096
    1MOL    C06 1931   0.165   0.211   3.039
    1MOL    C07 1932   0.080   0.141   3.259
    1MOL    C08 1933   0.220  -0.012   3.392
    1MOL    H09 1934   0.412  -0.060   3.307
    1MOL    C0A 1935   0.464   0.129   2.842
    1MOL    C0B 1936   0.258   0.203   2.932
    1MOL    H0C 1937   0.065   0.248   3.016
    1MOL    H0D 1938  -0.001   0.194   3.243
    1MOL    C0E 1939   0.097   0.064   3.376
    1MOL    C0F 1940   0.237  -0.081   3.516
    1MOL    C0G 1941   0.435   0.180   2.715
    1MOL    H0H 1942   0.555   0.077   2.868
    1MOL    C0I 1943   0.226   0.255   2.804
    1MOL    C0J 1944   0.002   0.066   3.482
    1MOL    C0K 1945   0.135  -0.077   3.622
    1MOL    H0M 1946   0.323  -0.134   3.539
    1MOL    C0N 1947   0.318   0.244   2.697
    1MOL    H0O 1948   0.497   0.163   2.630
    1MOL    H0P 1949   0.126   0.303   2.793
    1MOL    H0Q 1950  -0.094   0.115   3.469
    1MOL    C0R 1951   0.024  -0.003   3.603
    1MOL    C0S 1952   0.150  -0.145   3.748
    1MOL    H0T 1953   0.285   0.295   2.612
    1MOL    C0U 1954  -0.071  -0.001   3.705
    1MOL    C0V 1955   0.062  -0.138   3.857
    1MOL    H0W 1956   0.244  -0.208   3.766
    1MOL    C0X 1957  -0.050  -0.062   3.832
    1MOL    H0Y 1958  -0.162   0.055   3.700
    1MOL    H0Z 1959   0.082  -0.204   3.940
    1MOL    H10 1960  -0.123  -0.062   3.912
    1MOL    C00 1962   0.222   1.722   0.547
    1MOL    C01 1963   0.123   1.710   0.644
    1MOL    C02 1964   0.340   1.645   0.559
    1MOL    C03 1965   0.200   1.793   0.428
    1MOL    C04 1966   0.139   1.638   0.766
    1MOL    H05 1967   0.034   1.759   0.622
    1MOL    C06 1968   0.356   1.584   0.682
    1MOL    C07 1969   0.437   1.653   0.458
    1MOL    C08 1970   0.293   1.795   0.322
    1MOL    H09 1971   0.113   1.840   0.420
    1MOL    C0A 1972   0.040   1.629   0.864
    1MOL    C0B 1973   0.257   1.576   0.785
    1MOL    H0C 1974   0.452   1.540   0.708
    1MOL    H0D 1975   0.527   1.605   0.456
    1MOL    C0E 1976   0.417   1.723   0.339
    1MOL    C0F 1977   0.275   1.868   0.205
    1MOL    C0G 1978   0.058   1.564   0.995
    1MOL    H0H 1979  -0.052   1.674   0.849
    1MOL    C0I 1980   0.282   1.513   0.913
    1MOL    C0J 1981   0.505   1.723   0.235
    1MOL    C0K 1982   0.374   1.873   0.098
    1MOL    H0M 1983   0.196   1.934   0.203
    1MOL    C0N 1984   0.185   1.508   1.017
    1MOL    H0O 1985  -0.024   1.553   1.065
    1MOL    H0P 1986   0.382   1.471   0.921
    1MOL    H0Q 1987   0.595   1.676   0.248
    1MOL    C0R 1988   0.486   1.799   0.115
    1MOL    C0S 1989   0.358   1.942  -0.025
    1MOL    H0T 1990   0.201   1.459   1.111
    1MOL    C0U 1991   0.587   1.802   0.016
    1MOL    C0V 1992   0.459   1.938  -0.127
    1MOL    H0W 1993   0.271   2.000  -0.039
    1MOL    C0X 1994   0.574   1.872  -0.106
    1MOL    H0Y 1995   0.675   1.746   0.040
    1MOL    H0Z 1996   0.446   1.992  -0.224
    1MOL    H10 1997   0.643   1.862  -0.189
   1.88260   2.30352   4.21699   0.00000   0.00000   0.22099   0.00000   0.15045   0.98318
