PSF EXT CMAP XPLOR

         2 !NTITLE
* EXECUTING CHARMM SCRIPT FROM PYTHON                                           
*  DATE:    11/13/25     15: 4:19      CREATED BY USER: takahashi               

      1944 !NATOM
         1 SYS      1        MOL      C1       CG2R61   0.100000E-01   12.0110           0
         2 SYS      1        MOL      C2       CG2R61  -0.125000       12.0110           0
         3 SYS      1        MOL      C3       CG2R61   0.100000E-01   12.0110           0
         4 SYS      1        MOL      C4       CG2R61  -0.125000       12.0110           0
         5 SYS      1        MOL      C5       CG2R61   0.500000E-02   12.0110           0
         6 SYS      1        MOL      H6       HGR61    0.115000       1.00800           0
         7 SYS      1        MOL      C7       CG2R61  -0.125000       12.0110           0
         8 SYS      1        MOL      C8       CG2R61  -0.125000       12.0110           0
         9 SYS      1        MOL      C9       CG2R61   0.100000E-01   12.0110           0
        10 SYS      1        MOL      H10      HGR61    0.115000       1.00800           0
        11 SYS      1        MOL      C11      CG2R61  -0.120000       12.0110           0
        12 SYS      1        MOL      C12      CG2R61   0.500000E-02   12.0110           0
        13 SYS      1        MOL      H13      HGR61    0.115000       1.00800           0
        14 SYS      1        MOL      H14      HGR61    0.115000       1.00800           0
        15 SYS      1        MOL      C15      CG2R61   0.100000E-01   12.0110           0
        16 SYS      1        MOL      C16      CG2R61  -0.125000       12.0110           0
        17 SYS      1        MOL      C17      CG2R61  -0.110000       12.0110           0
        18 SYS      1        MOL      H18      HGR61    0.115000       1.00800           0
        19 SYS      1        MOL      C19      CG2R61  -0.120000       12.0110           0
        20 SYS      1        MOL      C20      CG2R61  -0.125000       12.0110           0
        21 SYS      1        MOL      C21      CG2R61   0.500000E-02   12.0110           0
        22 SYS      1        MOL      H22      HGR61    0.115000       1.00800           0
        23 SYS      1        MOL      C23      CG2R61  -0.110000       12.0110           0
        24 SYS      1        MOL      H24      HGR61    0.115000       1.00800           0
        25 SYS      1        MOL      H25      HGR61    0.115000       1.00800           0
        26 SYS      1        MOL      H26      HGR61    0.115000       1.00800           0
        27 SYS      1        MOL      C27      CG2R61   0.500000E-02   12.0110           0
        28 SYS      1        MOL      C28      CG2R61  -0.120000       12.0110           0
        29 SYS      1        MOL      H29      HGR61    0.115000       1.00800           0
        30 SYS      1        MOL      C30      CG2R61  -0.120000       12.0110           0
        31 SYS      1        MOL      C31      CG2R61  -0.110000       12.0110           0
        32 SYS      1        MOL      H32      HGR61    0.115000       1.00800           0
        33 SYS      1        MOL      C33      CG2R61  -0.110000       12.0110           0
        34 SYS      1        MOL      H34      HGR61    0.115000       1.00800           0
        35 SYS      1        MOL      H35      HGR61    0.115000       1.00800           0
        36 SYS      1        MOL      H36      HGR61    0.115000       1.00800           0
        37 SYS      2        MOL      C1       CG2R61   0.100000E-01   12.0110           0
        38 SYS      2        MOL      C2       CG2R61  -0.125000       12.0110           0
        39 SYS      2        MOL      C3       CG2R61   0.100000E-01   12.0110           0
        40 SYS      2        MOL      C4       CG2R61  -0.125000       12.0110           0
        41 SYS      2        MOL      C5       CG2R61   0.500000E-02   12.0110           0
        42 SYS      2        MOL      H6       HGR61    0.115000       1.00800           0
        43 SYS      2        MOL      C7       CG2R61  -0.125000       12.0110           0
        44 SYS      2        MOL      C8       CG2R61  -0.125000       12.0110           0
        45 SYS      2        MOL      C9       CG2R61   0.100000E-01   12.0110           0
        46 SYS      2        MOL      H10      HGR61    0.115000       1.00800           0
        47 SYS      2        MOL      C11      CG2R61  -0.120000       12.0110           0
        48 SYS      2        MOL      C12      CG2R61   0.500000E-02   12.0110           0
        49 SYS      2        MOL      H13      HGR61    0.115000       1.00800           0
        50 SYS      2        MOL      H14      HGR61    0.115000       1.00800           0
        51 SYS      2        MOL      C15      CG2R61   0.100000E-01   12.0110           0
        52 SYS      2        MOL      C16      CG2R61  -0.125000       12.0110           0
        53 SYS      2        MOL      C17      CG2R61  -0.110000       12.0110           0
        54 SYS      2        MOL      H18      HGR61    0.115000       1.00800           0
        55 SYS      2        MOL      C19      CG2R61  -0.120000       12.0110           0
        56 SYS      2        MOL      C20      CG2R61  -0.125000       12.0110           0
        57 SYS      2        MOL      C21      CG2R61   0.500000E-02   12.0110           0
        58 SYS      2        MOL      H22      HGR61    0.115000       1.00800           0
        59 SYS      2        MOL      C23      CG2R61  -0.110000       12.0110           0
        60 SYS      2        MOL      H24      HGR61    0.115000       1.00800           0
        61 SYS      2        MOL      H25      HGR61    0.115000       1.00800           0
        62 SYS      2        MOL      H26      HGR61    0.115000       1.00800           0
        63 SYS      2        MOL      C27      CG2R61   0.500000E-02   12.0110           0
        64 SYS      2        MOL      C28      CG2R61  -0.120000       12.0110           0
        65 SYS      2        MOL      H29      HGR61    0.115000       1.00800           0
        66 SYS      2        MOL      C30      CG2R61  -0.120000       12.0110           0
        67 SYS      2        MOL      C31      CG2R61  -0.110000       12.0110           0
        68 SYS      2        MOL      H32      HGR61    0.115000       1.00800           0
        69 SYS      2        MOL      C33      CG2R61  -0.110000       12.0110           0
        70 SYS      2        MOL      H34      HGR61    0.115000       1.00800           0
        71 SYS      2        MOL      H35      HGR61    0.115000       1.00800           0
        72 SYS      2        MOL      H36      HGR61    0.115000       1.00800           0
        73 SYS      3        MOL      C1       CG2R61   0.100000E-01   12.0110           0
        74 SYS      3        MOL      C2       CG2R61  -0.125000       12.0110           0
        75 SYS      3        MOL      C3       CG2R61   0.100000E-01   12.0110           0
        76 SYS      3        MOL      C4       CG2R61  -0.125000       12.0110           0
        77 SYS      3        MOL      C5       CG2R61   0.500000E-02   12.0110           0
        78 SYS      3        MOL      H6       HGR61    0.115000       1.00800           0
        79 SYS      3        MOL      C7       CG2R61  -0.125000       12.0110           0
        80 SYS      3        MOL      C8       CG2R61  -0.125000       12.0110           0
        81 SYS      3        MOL      C9       CG2R61   0.100000E-01   12.0110           0
        82 SYS      3        MOL      H10      HGR61    0.115000       1.00800           0
        83 SYS      3        MOL      C11      CG2R61  -0.120000       12.0110           0
        84 SYS      3        MOL      C12      CG2R61   0.500000E-02   12.0110           0
        85 SYS      3        MOL      H13      HGR61    0.115000       1.00800           0
        86 SYS      3        MOL      H14      HGR61    0.115000       1.00800           0
        87 SYS      3        MOL      C15      CG2R61   0.100000E-01   12.0110           0
        88 SYS      3        MOL      C16      CG2R61  -0.125000       12.0110           0
        89 SYS      3        MOL      C17      CG2R61  -0.110000       12.0110           0
        90 SYS      3        MOL      H18      HGR61    0.115000       1.00800           0
        91 SYS      3        MOL      C19      CG2R61  -0.120000       12.0110           0
        92 SYS      3        MOL      C20      CG2R61  -0.125000       12.0110           0
        93 SYS      3        MOL      C21      CG2R61   0.500000E-02   12.0110           0
        94 SYS      3        MOL      H22      HGR61    0.115000       1.00800           0
        95 SYS      3        MOL      C23      CG2R61  -0.110000       12.0110           0
        96 SYS      3        MOL      H24      HGR61    0.115000       1.00800           0
        97 SYS      3        MOL      H25      HGR61    0.115000       1.00800           0
        98 SYS      3        MOL      H26      HGR61    0.115000       1.00800           0
        99 SYS      3        MOL      C27      CG2R61   0.500000E-02   12.0110           0
       100 SYS      3        MOL      C28      CG2R61  -0.120000       12.0110           0
       101 SYS      3        MOL      H29      HGR61    0.115000       1.00800           0
       102 SYS      3        MOL      C30      CG2R61  -0.120000       12.0110           0
       103 SYS      3        MOL      C31      CG2R61  -0.110000       12.0110           0
       104 SYS      3        MOL      H32      HGR61    0.115000       1.00800           0
       105 SYS      3        MOL      C33      CG2R61  -0.110000       12.0110           0
       106 SYS      3        MOL      H34      HGR61    0.115000       1.00800           0
       107 SYS      3        MOL      H35      HGR61    0.115000       1.00800           0
       108 SYS      3        MOL      H36      HGR61    0.115000       1.00800           0
       109 SYS      4        MOL      C1       CG2R61   0.100000E-01   12.0110           0
       110 SYS      4        MOL      C2       CG2R61  -0.125000       12.0110           0
       111 SYS      4        MOL      C3       CG2R61   0.100000E-01   12.0110           0
       112 SYS      4        MOL      C4       CG2R61  -0.125000       12.0110           0
       113 SYS      4        MOL      C5       CG2R61   0.500000E-02   12.0110           0
       114 SYS      4        MOL      H6       HGR61    0.115000       1.00800           0
       115 SYS      4        MOL      C7       CG2R61  -0.125000       12.0110           0
       116 SYS      4        MOL      C8       CG2R61  -0.125000       12.0110           0
       117 SYS      4        MOL      C9       CG2R61   0.100000E-01   12.0110           0
       118 SYS      4        MOL      H10      HGR61    0.115000       1.00800           0
       119 SYS      4        MOL      C11      CG2R61  -0.120000       12.0110           0
       120 SYS      4        MOL      C12      CG2R61   0.500000E-02   12.0110           0
       121 SYS      4        MOL      H13      HGR61    0.115000       1.00800           0
       122 SYS      4        MOL      H14      HGR61    0.115000       1.00800           0
       123 SYS      4        MOL      C15      CG2R61   0.100000E-01   12.0110           0
       124 SYS      4        MOL      C16      CG2R61  -0.125000       12.0110           0
       125 SYS      4        MOL      C17      CG2R61  -0.110000       12.0110           0
       126 SYS      4        MOL      H18      HGR61    0.115000       1.00800           0
       127 SYS      4        MOL      C19      CG2R61  -0.120000       12.0110           0
       128 SYS      4        MOL      C20      CG2R61  -0.125000       12.0110           0
       129 SYS      4        MOL      C21      CG2R61   0.500000E-02   12.0110           0
       130 SYS      4        MOL      H22      HGR61    0.115000       1.00800           0
       131 SYS      4        MOL      C23      CG2R61  -0.110000       12.0110           0
       132 SYS      4        MOL      H24      HGR61    0.115000       1.00800           0
       133 SYS      4        MOL      H25      HGR61    0.115000       1.00800           0
       134 SYS      4        MOL      H26      HGR61    0.115000       1.00800           0
       135 SYS      4        MOL      C27      CG2R61   0.500000E-02   12.0110           0
       136 SYS      4        MOL      C28      CG2R61  -0.120000       12.0110           0
       137 SYS      4        MOL      H29      HGR61    0.115000       1.00800           0
       138 SYS      4        MOL      C30      CG2R61  -0.120000       12.0110           0
       139 SYS      4        MOL      C31      CG2R61  -0.110000       12.0110           0
       140 SYS      4        MOL      H32      HGR61    0.115000       1.00800           0
       141 SYS      4        MOL      C33      CG2R61  -0.110000       12.0110           0
       142 SYS      4        MOL      H34      HGR61    0.115000       1.00800           0
       143 SYS      4        MOL      H35      HGR61    0.115000       1.00800           0
       144 SYS      4        MOL      H36      HGR61    0.115000       1.00800           0
       145 SYS      5        MOL      C1       CG2R61   0.100000E-01   12.0110           0
       146 SYS      5        MOL      C2       CG2R61  -0.125000       12.0110           0
       147 SYS      5        MOL      C3       CG2R61   0.100000E-01   12.0110           0
       148 SYS      5        MOL      C4       CG2R61  -0.125000       12.0110           0
       149 SYS      5        MOL      C5       CG2R61   0.500000E-02   12.0110           0
       150 SYS      5        MOL      H6       HGR61    0.115000       1.00800           0
       151 SYS      5        MOL      C7       CG2R61  -0.125000       12.0110           0
       152 SYS      5        MOL      C8       CG2R61  -0.125000       12.0110           0
       153 SYS      5        MOL      C9       CG2R61   0.100000E-01   12.0110           0
       154 SYS      5        MOL      H10      HGR61    0.115000       1.00800           0
       155 SYS      5        MOL      C11      CG2R61  -0.120000       12.0110           0
       156 SYS      5        MOL      C12      CG2R61   0.500000E-02   12.0110           0
       157 SYS      5        MOL      H13      HGR61    0.115000       1.00800           0
       158 SYS      5        MOL      H14      HGR61    0.115000       1.00800           0
       159 SYS      5        MOL      C15      CG2R61   0.100000E-01   12.0110           0
       160 SYS      5        MOL      C16      CG2R61  -0.125000       12.0110           0
       161 SYS      5        MOL      C17      CG2R61  -0.110000       12.0110           0
       162 SYS      5        MOL      H18      HGR61    0.115000       1.00800           0
       163 SYS      5        MOL      C19      CG2R61  -0.120000       12.0110           0
       164 SYS      5        MOL      C20      CG2R61  -0.125000       12.0110           0
       165 SYS      5        MOL      C21      CG2R61   0.500000E-02   12.0110           0
       166 SYS      5        MOL      H22      HGR61    0.115000       1.00800           0
       167 SYS      5        MOL      C23      CG2R61  -0.110000       12.0110           0
       168 SYS      5        MOL      H24      HGR61    0.115000       1.00800           0
       169 SYS      5        MOL      H25      HGR61    0.115000       1.00800           0
       170 SYS      5        MOL      H26      HGR61    0.115000       1.00800           0
       171 SYS      5        MOL      C27      CG2R61   0.500000E-02   12.0110           0
       172 SYS      5        MOL      C28      CG2R61  -0.120000       12.0110           0
       173 SYS      5        MOL      H29      HGR61    0.115000       1.00800           0
       174 SYS      5        MOL      C30      CG2R61  -0.120000       12.0110           0
       175 SYS      5        MOL      C31      CG2R61  -0.110000       12.0110           0
       176 SYS      5        MOL      H32      HGR61    0.115000       1.00800           0
       177 SYS      5        MOL      C33      CG2R61  -0.110000       12.0110           0
       178 SYS      5        MOL      H34      HGR61    0.115000       1.00800           0
       179 SYS      5        MOL      H35      HGR61    0.115000       1.00800           0
       180 SYS      5        MOL      H36      HGR61    0.115000       1.00800           0
       181 SYS      6        MOL      C1       CG2R61   0.100000E-01   12.0110           0
       182 SYS      6        MOL      C2       CG2R61  -0.125000       12.0110           0
       183 SYS      6        MOL      C3       CG2R61   0.100000E-01   12.0110           0
       184 SYS      6        MOL      C4       CG2R61  -0.125000       12.0110           0
       185 SYS      6        MOL      C5       CG2R61   0.500000E-02   12.0110           0
       186 SYS      6        MOL      H6       HGR61    0.115000       1.00800           0
       187 SYS      6        MOL      C7       CG2R61  -0.125000       12.0110           0
       188 SYS      6        MOL      C8       CG2R61  -0.125000       12.0110           0
       189 SYS      6        MOL      C9       CG2R61   0.100000E-01   12.0110           0
       190 SYS      6        MOL      H10      HGR61    0.115000       1.00800           0
       191 SYS      6        MOL      C11      CG2R61  -0.120000       12.0110           0
       192 SYS      6        MOL      C12      CG2R61   0.500000E-02   12.0110           0
       193 SYS      6        MOL      H13      HGR61    0.115000       1.00800           0
       194 SYS      6        MOL      H14      HGR61    0.115000       1.00800           0
       195 SYS      6        MOL      C15      CG2R61   0.100000E-01   12.0110           0
       196 SYS      6        MOL      C16      CG2R61  -0.125000       12.0110           0
       197 SYS      6        MOL      C17      CG2R61  -0.110000       12.0110           0
       198 SYS      6        MOL      H18      HGR61    0.115000       1.00800           0
       199 SYS      6        MOL      C19      CG2R61  -0.120000       12.0110           0
       200 SYS      6        MOL      C20      CG2R61  -0.125000       12.0110           0
       201 SYS      6        MOL      C21      CG2R61   0.500000E-02   12.0110           0
       202 SYS      6        MOL      H22      HGR61    0.115000       1.00800           0
       203 SYS      6        MOL      C23      CG2R61  -0.110000       12.0110           0
       204 SYS      6        MOL      H24      HGR61    0.115000       1.00800           0
       205 SYS      6        MOL      H25      HGR61    0.115000       1.00800           0
       206 SYS      6        MOL      H26      HGR61    0.115000       1.00800           0
       207 SYS      6        MOL      C27      CG2R61   0.500000E-02   12.0110           0
       208 SYS      6        MOL      C28      CG2R61  -0.120000       12.0110           0
       209 SYS      6        MOL      H29      HGR61    0.115000       1.00800           0
       210 SYS      6        MOL      C30      CG2R61  -0.120000       12.0110           0
       211 SYS      6        MOL      C31      CG2R61  -0.110000       12.0110           0
       212 SYS      6        MOL      H32      HGR61    0.115000       1.00800           0
       213 SYS      6        MOL      C33      CG2R61  -0.110000       12.0110           0
       214 SYS      6        MOL      H34      HGR61    0.115000       1.00800           0
       215 SYS      6        MOL      H35      HGR61    0.115000       1.00800           0
       216 SYS      6        MOL      H36      HGR61    0.115000       1.00800           0
       217 SYS      7        MOL      C1       CG2R61   0.100000E-01   12.0110           0
       218 SYS      7        MOL      C2       CG2R61  -0.125000       12.0110           0
       219 SYS      7        MOL      C3       CG2R61   0.100000E-01   12.0110           0
       220 SYS      7        MOL      C4       CG2R61  -0.125000       12.0110           0
       221 SYS      7        MOL      C5       CG2R61   0.500000E-02   12.0110           0
       222 SYS      7        MOL      H6       HGR61    0.115000       1.00800           0
       223 SYS      7        MOL      C7       CG2R61  -0.125000       12.0110           0
       224 SYS      7        MOL      C8       CG2R61  -0.125000       12.0110           0
       225 SYS      7        MOL      C9       CG2R61   0.100000E-01   12.0110           0
       226 SYS      7        MOL      H10      HGR61    0.115000       1.00800           0
       227 SYS      7        MOL      C11      CG2R61  -0.120000       12.0110           0
       228 SYS      7        MOL      C12      CG2R61   0.500000E-02   12.0110           0
       229 SYS      7        MOL      H13      HGR61    0.115000       1.00800           0
       230 SYS      7        MOL      H14      HGR61    0.115000       1.00800           0
       231 SYS      7        MOL      C15      CG2R61   0.100000E-01   12.0110           0
       232 SYS      7        MOL      C16      CG2R61  -0.125000       12.0110           0
       233 SYS      7        MOL      C17      CG2R61  -0.110000       12.0110           0
       234 SYS      7        MOL      H18      HGR61    0.115000       1.00800           0
       235 SYS      7        MOL      C19      CG2R61  -0.120000       12.0110           0
       236 SYS      7        MOL      C20      CG2R61  -0.125000       12.0110           0
       237 SYS      7        MOL      C21      CG2R61   0.500000E-02   12.0110           0
       238 SYS      7        MOL      H22      HGR61    0.115000       1.00800           0
       239 SYS      7        MOL      C23      CG2R61  -0.110000       12.0110           0
       240 SYS      7        MOL      H24      HGR61    0.115000       1.00800           0
       241 SYS      7        MOL      H25      HGR61    0.115000       1.00800           0
       242 SYS      7        MOL      H26      HGR61    0.115000       1.00800           0
       243 SYS      7        MOL      C27      CG2R61   0.500000E-02   12.0110           0
       244 SYS      7        MOL      C28      CG2R61  -0.120000       12.0110           0
       245 SYS      7        MOL      H29      HGR61    0.115000       1.00800           0
       246 SYS      7        MOL      C30      CG2R61  -0.120000       12.0110           0
       247 SYS      7        MOL      C31      CG2R61  -0.110000       12.0110           0
       248 SYS      7        MOL      H32      HGR61    0.115000       1.00800           0
       249 SYS      7        MOL      C33      CG2R61  -0.110000       12.0110           0
       250 SYS      7        MOL      H34      HGR61    0.115000       1.00800           0
       251 SYS      7        MOL      H35      HGR61    0.115000       1.00800           0
       252 SYS      7        MOL      H36      HGR61    0.115000       1.00800           0
       253 SYS      8        MOL      C1       CG2R61   0.100000E-01   12.0110           0
       254 SYS      8        MOL      C2       CG2R61  -0.125000       12.0110           0
       255 SYS      8        MOL      C3       CG2R61   0.100000E-01   12.0110           0
       256 SYS      8        MOL      C4       CG2R61  -0.125000       12.0110           0
       257 SYS      8        MOL      C5       CG2R61   0.500000E-02   12.0110           0
       258 SYS      8        MOL      H6       HGR61    0.115000       1.00800           0
       259 SYS      8        MOL      C7       CG2R61  -0.125000       12.0110           0
       260 SYS      8        MOL      C8       CG2R61  -0.125000       12.0110           0
       261 SYS      8        MOL      C9       CG2R61   0.100000E-01   12.0110           0
       262 SYS      8        MOL      H10      HGR61    0.115000       1.00800           0
       263 SYS      8        MOL      C11      CG2R61  -0.120000       12.0110           0
       264 SYS      8        MOL      C12      CG2R61   0.500000E-02   12.0110           0
       265 SYS      8        MOL      H13      HGR61    0.115000       1.00800           0
       266 SYS      8        MOL      H14      HGR61    0.115000       1.00800           0
       267 SYS      8        MOL      C15      CG2R61   0.100000E-01   12.0110           0
       268 SYS      8        MOL      C16      CG2R61  -0.125000       12.0110           0
       269 SYS      8        MOL      C17      CG2R61  -0.110000       12.0110           0
       270 SYS      8        MOL      H18      HGR61    0.115000       1.00800           0
       271 SYS      8        MOL      C19      CG2R61  -0.120000       12.0110           0
       272 SYS      8        MOL      C20      CG2R61  -0.125000       12.0110           0
       273 SYS      8        MOL      C21      CG2R61   0.500000E-02   12.0110           0
       274 SYS      8        MOL      H22      HGR61    0.115000       1.00800           0
       275 SYS      8        MOL      C23      CG2R61  -0.110000       12.0110           0
       276 SYS      8        MOL      H24      HGR61    0.115000       1.00800           0
       277 SYS      8        MOL      H25      HGR61    0.115000       1.00800           0
       278 SYS      8        MOL      H26      HGR61    0.115000       1.00800           0
       279 SYS      8        MOL      C27      CG2R61   0.500000E-02   12.0110           0
       280 SYS      8        MOL      C28      CG2R61  -0.120000       12.0110           0
       281 SYS      8        MOL      H29      HGR61    0.115000       1.00800           0
       282 SYS      8        MOL      C30      CG2R61  -0.120000       12.0110           0
       283 SYS      8        MOL      C31      CG2R61  -0.110000       12.0110           0
       284 SYS      8        MOL      H32      HGR61    0.115000       1.00800           0
       285 SYS      8        MOL      C33      CG2R61  -0.110000       12.0110           0
       286 SYS      8        MOL      H34      HGR61    0.115000       1.00800           0
       287 SYS      8        MOL      H35      HGR61    0.115000       1.00800           0
       288 SYS      8        MOL      H36      HGR61    0.115000       1.00800           0
       289 SYS      9        MOL      C1       CG2R61   0.100000E-01   12.0110           0
       290 SYS      9        MOL      C2       CG2R61  -0.125000       12.0110           0
       291 SYS      9        MOL      C3       CG2R61   0.100000E-01   12.0110           0
       292 SYS      9        MOL      C4       CG2R61  -0.125000       12.0110           0
       293 SYS      9        MOL      C5       CG2R61   0.500000E-02   12.0110           0
       294 SYS      9        MOL      H6       HGR61    0.115000       1.00800           0
       295 SYS      9        MOL      C7       CG2R61  -0.125000       12.0110           0
       296 SYS      9        MOL      C8       CG2R61  -0.125000       12.0110           0
       297 SYS      9        MOL      C9       CG2R61   0.100000E-01   12.0110           0
       298 SYS      9        MOL      H10      HGR61    0.115000       1.00800           0
       299 SYS      9        MOL      C11      CG2R61  -0.120000       12.0110           0
       300 SYS      9        MOL      C12      CG2R61   0.500000E-02   12.0110           0
       301 SYS      9        MOL      H13      HGR61    0.115000       1.00800           0
       302 SYS      9        MOL      H14      HGR61    0.115000       1.00800           0
       303 SYS      9        MOL      C15      CG2R61   0.100000E-01   12.0110           0
       304 SYS      9        MOL      C16      CG2R61  -0.125000       12.0110           0
       305 SYS      9        MOL      C17      CG2R61  -0.110000       12.0110           0
       306 SYS      9        MOL      H18      HGR61    0.115000       1.00800           0
       307 SYS      9        MOL      C19      CG2R61  -0.120000       12.0110           0
       308 SYS      9        MOL      C20      CG2R61  -0.125000       12.0110           0
       309 SYS      9        MOL      C21      CG2R61   0.500000E-02   12.0110           0
       310 SYS      9        MOL      H22      HGR61    0.115000       1.00800           0
       311 SYS      9        MOL      C23      CG2R61  -0.110000       12.0110           0
       312 SYS      9        MOL      H24      HGR61    0.115000       1.00800           0
       313 SYS      9        MOL      H25      HGR61    0.115000       1.00800           0
       314 SYS      9        MOL      H26      HGR61    0.115000       1.00800           0
       315 SYS      9        MOL      C27      CG2R61   0.500000E-02   12.0110           0
       316 SYS      9        MOL      C28      CG2R61  -0.120000       12.0110           0
       317 SYS      9        MOL      H29      HGR61    0.115000       1.00800           0
       318 SYS      9        MOL      C30      CG2R61  -0.120000       12.0110           0
       319 SYS      9        MOL      C31      CG2R61  -0.110000       12.0110           0
       320 SYS      9        MOL      H32      HGR61    0.115000       1.00800           0
       321 SYS      9        MOL      C33      CG2R61  -0.110000       12.0110           0
       322 SYS      9        MOL      H34      HGR61    0.115000       1.00800           0
       323 SYS      9        MOL      H35      HGR61    0.115000       1.00800           0
       324 SYS      9        MOL      H36      HGR61    0.115000       1.00800           0
       325 SYS      10       MOL      C1       CG2R61   0.100000E-01   12.0110           0
       326 SYS      10       MOL      C2       CG2R61  -0.125000       12.0110           0
       327 SYS      10       MOL      C3       CG2R61   0.100000E-01   12.0110           0
       328 SYS      10       MOL      C4       CG2R61  -0.125000       12.0110           0
       329 SYS      10       MOL      C5       CG2R61   0.500000E-02   12.0110           0
       330 SYS      10       MOL      H6       HGR61    0.115000       1.00800           0
       331 SYS      10       MOL      C7       CG2R61  -0.125000       12.0110           0
       332 SYS      10       MOL      C8       CG2R61  -0.125000       12.0110           0
       333 SYS      10       MOL      C9       CG2R61   0.100000E-01   12.0110           0
       334 SYS      10       MOL      H10      HGR61    0.115000       1.00800           0
       335 SYS      10       MOL      C11      CG2R61  -0.120000       12.0110           0
       336 SYS      10       MOL      C12      CG2R61   0.500000E-02   12.0110           0
       337 SYS      10       MOL      H13      HGR61    0.115000       1.00800           0
       338 SYS      10       MOL      H14      HGR61    0.115000       1.00800           0
       339 SYS      10       MOL      C15      CG2R61   0.100000E-01   12.0110           0
       340 SYS      10       MOL      C16      CG2R61  -0.125000       12.0110           0
       341 SYS      10       MOL      C17      CG2R61  -0.110000       12.0110           0
       342 SYS      10       MOL      H18      HGR61    0.115000       1.00800           0
       343 SYS      10       MOL      C19      CG2R61  -0.120000       12.0110           0
       344 SYS      10       MOL      C20      CG2R61  -0.125000       12.0110           0
       345 SYS      10       MOL      C21      CG2R61   0.500000E-02   12.0110           0
       346 SYS      10       MOL      H22      HGR61    0.115000       1.00800           0
       347 SYS      10       MOL      C23      CG2R61  -0.110000       12.0110           0
       348 SYS      10       MOL      H24      HGR61    0.115000       1.00800           0
       349 SYS      10       MOL      H25      HGR61    0.115000       1.00800           0
       350 SYS      10       MOL      H26      HGR61    0.115000       1.00800           0
       351 SYS      10       MOL      C27      CG2R61   0.500000E-02   12.0110           0
       352 SYS      10       MOL      C28      CG2R61  -0.120000       12.0110           0
       353 SYS      10       MOL      H29      HGR61    0.115000       1.00800           0
       354 SYS      10       MOL      C30      CG2R61  -0.120000       12.0110           0
       355 SYS      10       MOL      C31      CG2R61  -0.110000       12.0110           0
       356 SYS      10       MOL      H32      HGR61    0.115000       1.00800           0
       357 SYS      10       MOL      C33      CG2R61  -0.110000       12.0110           0
       358 SYS      10       MOL      H34      HGR61    0.115000       1.00800           0
       359 SYS      10       MOL      H35      HGR61    0.115000       1.00800           0
       360 SYS      10       MOL      H36      HGR61    0.115000       1.00800           0
       361 SYS      11       MOL      C1       CG2R61   0.100000E-01   12.0110           0
       362 SYS      11       MOL      C2       CG2R61  -0.125000       12.0110           0
       363 SYS      11       MOL      C3       CG2R61   0.100000E-01   12.0110           0
       364 SYS      11       MOL      C4       CG2R61  -0.125000       12.0110           0
       365 SYS      11       MOL      C5       CG2R61   0.500000E-02   12.0110           0
       366 SYS      11       MOL      H6       HGR61    0.115000       1.00800           0
       367 SYS      11       MOL      C7       CG2R61  -0.125000       12.0110           0
       368 SYS      11       MOL      C8       CG2R61  -0.125000       12.0110           0
       369 SYS      11       MOL      C9       CG2R61   0.100000E-01   12.0110           0
       370 SYS      11       MOL      H10      HGR61    0.115000       1.00800           0
       371 SYS      11       MOL      C11      CG2R61  -0.120000       12.0110           0
       372 SYS      11       MOL      C12      CG2R61   0.500000E-02   12.0110           0
       373 SYS      11       MOL      H13      HGR61    0.115000       1.00800           0
       374 SYS      11       MOL      H14      HGR61    0.115000       1.00800           0
       375 SYS      11       MOL      C15      CG2R61   0.100000E-01   12.0110           0
       376 SYS      11       MOL      C16      CG2R61  -0.125000       12.0110           0
       377 SYS      11       MOL      C17      CG2R61  -0.110000       12.0110           0
       378 SYS      11       MOL      H18      HGR61    0.115000       1.00800           0
       379 SYS      11       MOL      C19      CG2R61  -0.120000       12.0110           0
       380 SYS      11       MOL      C20      CG2R61  -0.125000       12.0110           0
       381 SYS      11       MOL      C21      CG2R61   0.500000E-02   12.0110           0
       382 SYS      11       MOL      H22      HGR61    0.115000       1.00800           0
       383 SYS      11       MOL      C23      CG2R61  -0.110000       12.0110           0
       384 SYS      11       MOL      H24      HGR61    0.115000       1.00800           0
       385 SYS      11       MOL      H25      HGR61    0.115000       1.00800           0
       386 SYS      11       MOL      H26      HGR61    0.115000       1.00800           0
       387 SYS      11       MOL      C27      CG2R61   0.500000E-02   12.0110           0
       388 SYS      11       MOL      C28      CG2R61  -0.120000       12.0110           0
       389 SYS      11       MOL      H29      HGR61    0.115000       1.00800           0
       390 SYS      11       MOL      C30      CG2R61  -0.120000       12.0110           0
       391 SYS      11       MOL      C31      CG2R61  -0.110000       12.0110           0
       392 SYS      11       MOL      H32      HGR61    0.115000       1.00800           0
       393 SYS      11       MOL      C33      CG2R61  -0.110000       12.0110           0
       394 SYS      11       MOL      H34      HGR61    0.115000       1.00800           0
       395 SYS      11       MOL      H35      HGR61    0.115000       1.00800           0
       396 SYS      11       MOL      H36      HGR61    0.115000       1.00800           0
       397 SYS      12       MOL      C1       CG2R61   0.100000E-01   12.0110           0
       398 SYS      12       MOL      C2       CG2R61  -0.125000       12.0110           0
       399 SYS      12       MOL      C3       CG2R61   0.100000E-01   12.0110           0
       400 SYS      12       MOL      C4       CG2R61  -0.125000       12.0110           0
       401 SYS      12       MOL      C5       CG2R61   0.500000E-02   12.0110           0
       402 SYS      12       MOL      H6       HGR61    0.115000       1.00800           0
       403 SYS      12       MOL      C7       CG2R61  -0.125000       12.0110           0
       404 SYS      12       MOL      C8       CG2R61  -0.125000       12.0110           0
       405 SYS      12       MOL      C9       CG2R61   0.100000E-01   12.0110           0
       406 SYS      12       MOL      H10      HGR61    0.115000       1.00800           0
       407 SYS      12       MOL      C11      CG2R61  -0.120000       12.0110           0
       408 SYS      12       MOL      C12      CG2R61   0.500000E-02   12.0110           0
       409 SYS      12       MOL      H13      HGR61    0.115000       1.00800           0
       410 SYS      12       MOL      H14      HGR61    0.115000       1.00800           0
       411 SYS      12       MOL      C15      CG2R61   0.100000E-01   12.0110           0
       412 SYS      12       MOL      C16      CG2R61  -0.125000       12.0110           0
       413 SYS      12       MOL      C17      CG2R61  -0.110000       12.0110           0
       414 SYS      12       MOL      H18      HGR61    0.115000       1.00800           0
       415 SYS      12       MOL      C19      CG2R61  -0.120000       12.0110           0
       416 SYS      12       MOL      C20      CG2R61  -0.125000       12.0110           0
       417 SYS      12       MOL      C21      CG2R61   0.500000E-02   12.0110           0
       418 SYS      12       MOL      H22      HGR61    0.115000       1.00800           0
       419 SYS      12       MOL      C23      CG2R61  -0.110000       12.0110           0
       420 SYS      12       MOL      H24      HGR61    0.115000       1.00800           0
       421 SYS      12       MOL      H25      HGR61    0.115000       1.00800           0
       422 SYS      12       MOL      H26      HGR61    0.115000       1.00800           0
       423 SYS      12       MOL      C27      CG2R61   0.500000E-02   12.0110           0
       424 SYS      12       MOL      C28      CG2R61  -0.120000       12.0110           0
       425 SYS      12       MOL      H29      HGR61    0.115000       1.00800           0
       426 SYS      12       MOL      C30      CG2R61  -0.120000       12.0110           0
       427 SYS      12       MOL      C31      CG2R61  -0.110000       12.0110           0
       428 SYS      12       MOL      H32      HGR61    0.115000       1.00800           0
       429 SYS      12       MOL      C33      CG2R61  -0.110000       12.0110           0
       430 SYS      12       MOL      H34      HGR61    0.115000       1.00800           0
       431 SYS      12       MOL      H35      HGR61    0.115000       1.00800           0
       432 SYS      12       MOL      H36      HGR61    0.115000       1.00800           0
       433 SYS      13       MOL      C1       CG2R61   0.100000E-01   12.0110           0
       434 SYS      13       MOL      C2       CG2R61  -0.125000       12.0110           0
       435 SYS      13       MOL      C3       CG2R61   0.100000E-01   12.0110           0
       436 SYS      13       MOL      C4       CG2R61  -0.125000       12.0110           0
       437 SYS      13       MOL      C5       CG2R61   0.500000E-02   12.0110           0
       438 SYS      13       MOL      H6       HGR61    0.115000       1.00800           0
       439 SYS      13       MOL      C7       CG2R61  -0.125000       12.0110           0
       440 SYS      13       MOL      C8       CG2R61  -0.125000       12.0110           0
       441 SYS      13       MOL      C9       CG2R61   0.100000E-01   12.0110           0
       442 SYS      13       MOL      H10      HGR61    0.115000       1.00800           0
       443 SYS      13       MOL      C11      CG2R61  -0.120000       12.0110           0
       444 SYS      13       MOL      C12      CG2R61   0.500000E-02   12.0110           0
       445 SYS      13       MOL      H13      HGR61    0.115000       1.00800           0
       446 SYS      13       MOL      H14      HGR61    0.115000       1.00800           0
       447 SYS      13       MOL      C15      CG2R61   0.100000E-01   12.0110           0
       448 SYS      13       MOL      C16      CG2R61  -0.125000       12.0110           0
       449 SYS      13       MOL      C17      CG2R61  -0.110000       12.0110           0
       450 SYS      13       MOL      H18      HGR61    0.115000       1.00800           0
       451 SYS      13       MOL      C19      CG2R61  -0.120000       12.0110           0
       452 SYS      13       MOL      C20      CG2R61  -0.125000       12.0110           0
       453 SYS      13       MOL      C21      CG2R61   0.500000E-02   12.0110           0
       454 SYS      13       MOL      H22      HGR61    0.115000       1.00800           0
       455 SYS      13       MOL      C23      CG2R61  -0.110000       12.0110           0
       456 SYS      13       MOL      H24      HGR61    0.115000       1.00800           0
       457 SYS      13       MOL      H25      HGR61    0.115000       1.00800           0
       458 SYS      13       MOL      H26      HGR61    0.115000       1.00800           0
       459 SYS      13       MOL      C27      CG2R61   0.500000E-02   12.0110           0
       460 SYS      13       MOL      C28      CG2R61  -0.120000       12.0110           0
       461 SYS      13       MOL      H29      HGR61    0.115000       1.00800           0
       462 SYS      13       MOL      C30      CG2R61  -0.120000       12.0110           0
       463 SYS      13       MOL      C31      CG2R61  -0.110000       12.0110           0
       464 SYS      13       MOL      H32      HGR61    0.115000       1.00800           0
       465 SYS      13       MOL      C33      CG2R61  -0.110000       12.0110           0
       466 SYS      13       MOL      H34      HGR61    0.115000       1.00800           0
       467 SYS      13       MOL      H35      HGR61    0.115000       1.00800           0
       468 SYS      13       MOL      H36      HGR61    0.115000       1.00800           0
       469 SYS      14       MOL      C1       CG2R61   0.100000E-01   12.0110           0
       470 SYS      14       MOL      C2       CG2R61  -0.125000       12.0110           0
       471 SYS      14       MOL      C3       CG2R61   0.100000E-01   12.0110           0
       472 SYS      14       MOL      C4       CG2R61  -0.125000       12.0110           0
       473 SYS      14       MOL      C5       CG2R61   0.500000E-02   12.0110           0
       474 SYS      14       MOL      H6       HGR61    0.115000       1.00800           0
       475 SYS      14       MOL      C7       CG2R61  -0.125000       12.0110           0
       476 SYS      14       MOL      C8       CG2R61  -0.125000       12.0110           0
       477 SYS      14       MOL      C9       CG2R61   0.100000E-01   12.0110           0
       478 SYS      14       MOL      H10      HGR61    0.115000       1.00800           0
       479 SYS      14       MOL      C11      CG2R61  -0.120000       12.0110           0
       480 SYS      14       MOL      C12      CG2R61   0.500000E-02   12.0110           0
       481 SYS      14       MOL      H13      HGR61    0.115000       1.00800           0
       482 SYS      14       MOL      H14      HGR61    0.115000       1.00800           0
       483 SYS      14       MOL      C15      CG2R61   0.100000E-01   12.0110           0
       484 SYS      14       MOL      C16      CG2R61  -0.125000       12.0110           0
       485 SYS      14       MOL      C17      CG2R61  -0.110000       12.0110           0
       486 SYS      14       MOL      H18      HGR61    0.115000       1.00800           0
       487 SYS      14       MOL      C19      CG2R61  -0.120000       12.0110           0
       488 SYS      14       MOL      C20      CG2R61  -0.125000       12.0110           0
       489 SYS      14       MOL      C21      CG2R61   0.500000E-02   12.0110           0
       490 SYS      14       MOL      H22      HGR61    0.115000       1.00800           0
       491 SYS      14       MOL      C23      CG2R61  -0.110000       12.0110           0
       492 SYS      14       MOL      H24      HGR61    0.115000       1.00800           0
       493 SYS      14       MOL      H25      HGR61    0.115000       1.00800           0
       494 SYS      14       MOL      H26      HGR61    0.115000       1.00800           0
       495 SYS      14       MOL      C27      CG2R61   0.500000E-02   12.0110           0
       496 SYS      14       MOL      C28      CG2R61  -0.120000       12.0110           0
       497 SYS      14       MOL      H29      HGR61    0.115000       1.00800           0
       498 SYS      14       MOL      C30      CG2R61  -0.120000       12.0110           0
       499 SYS      14       MOL      C31      CG2R61  -0.110000       12.0110           0
       500 SYS      14       MOL      H32      HGR61    0.115000       1.00800           0
       501 SYS      14       MOL      C33      CG2R61  -0.110000       12.0110           0
       502 SYS      14       MOL      H34      HGR61    0.115000       1.00800           0
       503 SYS      14       MOL      H35      HGR61    0.115000       1.00800           0
       504 SYS      14       MOL      H36      HGR61    0.115000       1.00800           0
       505 SYS      15       MOL      C1       CG2R61   0.100000E-01   12.0110           0
       506 SYS      15       MOL      C2       CG2R61  -0.125000       12.0110           0
       507 SYS      15       MOL      C3       CG2R61   0.100000E-01   12.0110           0
       508 SYS      15       MOL      C4       CG2R61  -0.125000       12.0110           0
       509 SYS      15       MOL      C5       CG2R61   0.500000E-02   12.0110           0
       510 SYS      15       MOL      H6       HGR61    0.115000       1.00800           0
       511 SYS      15       MOL      C7       CG2R61  -0.125000       12.0110           0
       512 SYS      15       MOL      C8       CG2R61  -0.125000       12.0110           0
       513 SYS      15       MOL      C9       CG2R61   0.100000E-01   12.0110           0
       514 SYS      15       MOL      H10      HGR61    0.115000       1.00800           0
       515 SYS      15       MOL      C11      CG2R61  -0.120000       12.0110           0
       516 SYS      15       MOL      C12      CG2R61   0.500000E-02   12.0110           0
       517 SYS      15       MOL      H13      HGR61    0.115000       1.00800           0
       518 SYS      15       MOL      H14      HGR61    0.115000       1.00800           0
       519 SYS      15       MOL      C15      CG2R61   0.100000E-01   12.0110           0
       520 SYS      15       MOL      C16      CG2R61  -0.125000       12.0110           0
       521 SYS      15       MOL      C17      CG2R61  -0.110000       12.0110           0
       522 SYS      15       MOL      H18      HGR61    0.115000       1.00800           0
       523 SYS      15       MOL      C19      CG2R61  -0.120000       12.0110           0
       524 SYS      15       MOL      C20      CG2R61  -0.125000       12.0110           0
       525 SYS      15       MOL      C21      CG2R61   0.500000E-02   12.0110           0
       526 SYS      15       MOL      H22      HGR61    0.115000       1.00800           0
       527 SYS      15       MOL      C23      CG2R61  -0.110000       12.0110           0
       528 SYS      15       MOL      H24      HGR61    0.115000       1.00800           0
       529 SYS      15       MOL      H25      HGR61    0.115000       1.00800           0
       530 SYS      15       MOL      H26      HGR61    0.115000       1.00800           0
       531 SYS      15       MOL      C27      CG2R61   0.500000E-02   12.0110           0
       532 SYS      15       MOL      C28      CG2R61  -0.120000       12.0110           0
       533 SYS      15       MOL      H29      HGR61    0.115000       1.00800           0
       534 SYS      15       MOL      C30      CG2R61  -0.120000       12.0110           0
       535 SYS      15       MOL      C31      CG2R61  -0.110000       12.0110           0
       536 SYS      15       MOL      H32      HGR61    0.115000       1.00800           0
       537 SYS      15       MOL      C33      CG2R61  -0.110000       12.0110           0
       538 SYS      15       MOL      H34      HGR61    0.115000       1.00800           0
       539 SYS      15       MOL      H35      HGR61    0.115000       1.00800           0
       540 SYS      15       MOL      H36      HGR61    0.115000       1.00800           0
       541 SYS      16       MOL      C1       CG2R61   0.100000E-01   12.0110           0
       542 SYS      16       MOL      C2       CG2R61  -0.125000       12.0110           0
       543 SYS      16       MOL      C3       CG2R61   0.100000E-01   12.0110           0
       544 SYS      16       MOL      C4       CG2R61  -0.125000       12.0110           0
       545 SYS      16       MOL      C5       CG2R61   0.500000E-02   12.0110           0
       546 SYS      16       MOL      H6       HGR61    0.115000       1.00800           0
       547 SYS      16       MOL      C7       CG2R61  -0.125000       12.0110           0
       548 SYS      16       MOL      C8       CG2R61  -0.125000       12.0110           0
       549 SYS      16       MOL      C9       CG2R61   0.100000E-01   12.0110           0
       550 SYS      16       MOL      H10      HGR61    0.115000       1.00800           0
       551 SYS      16       MOL      C11      CG2R61  -0.120000       12.0110           0
       552 SYS      16       MOL      C12      CG2R61   0.500000E-02   12.0110           0
       553 SYS      16       MOL      H13      HGR61    0.115000       1.00800           0
       554 SYS      16       MOL      H14      HGR61    0.115000       1.00800           0
       555 SYS      16       MOL      C15      CG2R61   0.100000E-01   12.0110           0
       556 SYS      16       MOL      C16      CG2R61  -0.125000       12.0110           0
       557 SYS      16       MOL      C17      CG2R61  -0.110000       12.0110           0
       558 SYS      16       MOL      H18      HGR61    0.115000       1.00800           0
       559 SYS      16       MOL      C19      CG2R61  -0.120000       12.0110           0
       560 SYS      16       MOL      C20      CG2R61  -0.125000       12.0110           0
       561 SYS      16       MOL      C21      CG2R61   0.500000E-02   12.0110           0
       562 SYS      16       MOL      H22      HGR61    0.115000       1.00800           0
       563 SYS      16       MOL      C23      CG2R61  -0.110000       12.0110           0
       564 SYS      16       MOL      H24      HGR61    0.115000       1.00800           0
       565 SYS      16       MOL      H25      HGR61    0.115000       1.00800           0
       566 SYS      16       MOL      H26      HGR61    0.115000       1.00800           0
       567 SYS      16       MOL      C27      CG2R61   0.500000E-02   12.0110           0
       568 SYS      16       MOL      C28      CG2R61  -0.120000       12.0110           0
       569 SYS      16       MOL      H29      HGR61    0.115000       1.00800           0
       570 SYS      16       MOL      C30      CG2R61  -0.120000       12.0110           0
       571 SYS      16       MOL      C31      CG2R61  -0.110000       12.0110           0
       572 SYS      16       MOL      H32      HGR61    0.115000       1.00800           0
       573 SYS      16       MOL      C33      CG2R61  -0.110000       12.0110           0
       574 SYS      16       MOL      H34      HGR61    0.115000       1.00800           0
       575 SYS      16       MOL      H35      HGR61    0.115000       1.00800           0
       576 SYS      16       MOL      H36      HGR61    0.115000       1.00800           0
       577 SYS      17       MOL      C1       CG2R61   0.100000E-01   12.0110           0
       578 SYS      17       MOL      C2       CG2R61  -0.125000       12.0110           0
       579 SYS      17       MOL      C3       CG2R61   0.100000E-01   12.0110           0
       580 SYS      17       MOL      C4       CG2R61  -0.125000       12.0110           0
       581 SYS      17       MOL      C5       CG2R61   0.500000E-02   12.0110           0
       582 SYS      17       MOL      H6       HGR61    0.115000       1.00800           0
       583 SYS      17       MOL      C7       CG2R61  -0.125000       12.0110           0
       584 SYS      17       MOL      C8       CG2R61  -0.125000       12.0110           0
       585 SYS      17       MOL      C9       CG2R61   0.100000E-01   12.0110           0
       586 SYS      17       MOL      H10      HGR61    0.115000       1.00800           0
       587 SYS      17       MOL      C11      CG2R61  -0.120000       12.0110           0
       588 SYS      17       MOL      C12      CG2R61   0.500000E-02   12.0110           0
       589 SYS      17       MOL      H13      HGR61    0.115000       1.00800           0
       590 SYS      17       MOL      H14      HGR61    0.115000       1.00800           0
       591 SYS      17       MOL      C15      CG2R61   0.100000E-01   12.0110           0
       592 SYS      17       MOL      C16      CG2R61  -0.125000       12.0110           0
       593 SYS      17       MOL      C17      CG2R61  -0.110000       12.0110           0
       594 SYS      17       MOL      H18      HGR61    0.115000       1.00800           0
       595 SYS      17       MOL      C19      CG2R61  -0.120000       12.0110           0
       596 SYS      17       MOL      C20      CG2R61  -0.125000       12.0110           0
       597 SYS      17       MOL      C21      CG2R61   0.500000E-02   12.0110           0
       598 SYS      17       MOL      H22      HGR61    0.115000       1.00800           0
       599 SYS      17       MOL      C23      CG2R61  -0.110000       12.0110           0
       600 SYS      17       MOL      H24      HGR61    0.115000       1.00800           0
       601 SYS      17       MOL      H25      HGR61    0.115000       1.00800           0
       602 SYS      17       MOL      H26      HGR61    0.115000       1.00800           0
       603 SYS      17       MOL      C27      CG2R61   0.500000E-02   12.0110           0
       604 SYS      17       MOL      C28      CG2R61  -0.120000       12.0110           0
       605 SYS      17       MOL      H29      HGR61    0.115000       1.00800           0
       606 SYS      17       MOL      C30      CG2R61  -0.120000       12.0110           0
       607 SYS      17       MOL      C31      CG2R61  -0.110000       12.0110           0
       608 SYS      17       MOL      H32      HGR61    0.115000       1.00800           0
       609 SYS      17       MOL      C33      CG2R61  -0.110000       12.0110           0
       610 SYS      17       MOL      H34      HGR61    0.115000       1.00800           0
       611 SYS      17       MOL      H35      HGR61    0.115000       1.00800           0
       612 SYS      17       MOL      H36      HGR61    0.115000       1.00800           0
       613 SYS      18       MOL      C1       CG2R61   0.100000E-01   12.0110           0
       614 SYS      18       MOL      C2       CG2R61  -0.125000       12.0110           0
       615 SYS      18       MOL      C3       CG2R61   0.100000E-01   12.0110           0
       616 SYS      18       MOL      C4       CG2R61  -0.125000       12.0110           0
       617 SYS      18       MOL      C5       CG2R61   0.500000E-02   12.0110           0
       618 SYS      18       MOL      H6       HGR61    0.115000       1.00800           0
       619 SYS      18       MOL      C7       CG2R61  -0.125000       12.0110           0
       620 SYS      18       MOL      C8       CG2R61  -0.125000       12.0110           0
       621 SYS      18       MOL      C9       CG2R61   0.100000E-01   12.0110           0
       622 SYS      18       MOL      H10      HGR61    0.115000       1.00800           0
       623 SYS      18       MOL      C11      CG2R61  -0.120000       12.0110           0
       624 SYS      18       MOL      C12      CG2R61   0.500000E-02   12.0110           0
       625 SYS      18       MOL      H13      HGR61    0.115000       1.00800           0
       626 SYS      18       MOL      H14      HGR61    0.115000       1.00800           0
       627 SYS      18       MOL      C15      CG2R61   0.100000E-01   12.0110           0
       628 SYS      18       MOL      C16      CG2R61  -0.125000       12.0110           0
       629 SYS      18       MOL      C17      CG2R61  -0.110000       12.0110           0
       630 SYS      18       MOL      H18      HGR61    0.115000       1.00800           0
       631 SYS      18       MOL      C19      CG2R61  -0.120000       12.0110           0
       632 SYS      18       MOL      C20      CG2R61  -0.125000       12.0110           0
       633 SYS      18       MOL      C21      CG2R61   0.500000E-02   12.0110           0
       634 SYS      18       MOL      H22      HGR61    0.115000       1.00800           0
       635 SYS      18       MOL      C23      CG2R61  -0.110000       12.0110           0
       636 SYS      18       MOL      H24      HGR61    0.115000       1.00800           0
       637 SYS      18       MOL      H25      HGR61    0.115000       1.00800           0
       638 SYS      18       MOL      H26      HGR61    0.115000       1.00800           0
       639 SYS      18       MOL      C27      CG2R61   0.500000E-02   12.0110           0
       640 SYS      18       MOL      C28      CG2R61  -0.120000       12.0110           0
       641 SYS      18       MOL      H29      HGR61    0.115000       1.00800           0
       642 SYS      18       MOL      C30      CG2R61  -0.120000       12.0110           0
       643 SYS      18       MOL      C31      CG2R61  -0.110000       12.0110           0
       644 SYS      18       MOL      H32      HGR61    0.115000       1.00800           0
       645 SYS      18       MOL      C33      CG2R61  -0.110000       12.0110           0
       646 SYS      18       MOL      H34      HGR61    0.115000       1.00800           0
       647 SYS      18       MOL      H35      HGR61    0.115000       1.00800           0
       648 SYS      18       MOL      H36      HGR61    0.115000       1.00800           0
       649 SYS      19       MOL      C1       CG2R61   0.100000E-01   12.0110           0
       650 SYS      19       MOL      C2       CG2R61  -0.125000       12.0110           0
       651 SYS      19       MOL      C3       CG2R61   0.100000E-01   12.0110           0
       652 SYS      19       MOL      C4       CG2R61  -0.125000       12.0110           0
       653 SYS      19       MOL      C5       CG2R61   0.500000E-02   12.0110           0
       654 SYS      19       MOL      H6       HGR61    0.115000       1.00800           0
       655 SYS      19       MOL      C7       CG2R61  -0.125000       12.0110           0
       656 SYS      19       MOL      C8       CG2R61  -0.125000       12.0110           0
       657 SYS      19       MOL      C9       CG2R61   0.100000E-01   12.0110           0
       658 SYS      19       MOL      H10      HGR61    0.115000       1.00800           0
       659 SYS      19       MOL      C11      CG2R61  -0.120000       12.0110           0
       660 SYS      19       MOL      C12      CG2R61   0.500000E-02   12.0110           0
       661 SYS      19       MOL      H13      HGR61    0.115000       1.00800           0
       662 SYS      19       MOL      H14      HGR61    0.115000       1.00800           0
       663 SYS      19       MOL      C15      CG2R61   0.100000E-01   12.0110           0
       664 SYS      19       MOL      C16      CG2R61  -0.125000       12.0110           0
       665 SYS      19       MOL      C17      CG2R61  -0.110000       12.0110           0
       666 SYS      19       MOL      H18      HGR61    0.115000       1.00800           0
       667 SYS      19       MOL      C19      CG2R61  -0.120000       12.0110           0
       668 SYS      19       MOL      C20      CG2R61  -0.125000       12.0110           0
       669 SYS      19       MOL      C21      CG2R61   0.500000E-02   12.0110           0
       670 SYS      19       MOL      H22      HGR61    0.115000       1.00800           0
       671 SYS      19       MOL      C23      CG2R61  -0.110000       12.0110           0
       672 SYS      19       MOL      H24      HGR61    0.115000       1.00800           0
       673 SYS      19       MOL      H25      HGR61    0.115000       1.00800           0
       674 SYS      19       MOL      H26      HGR61    0.115000       1.00800           0
       675 SYS      19       MOL      C27      CG2R61   0.500000E-02   12.0110           0
       676 SYS      19       MOL      C28      CG2R61  -0.120000       12.0110           0
       677 SYS      19       MOL      H29      HGR61    0.115000       1.00800           0
       678 SYS      19       MOL      C30      CG2R61  -0.120000       12.0110           0
       679 SYS      19       MOL      C31      CG2R61  -0.110000       12.0110           0
       680 SYS      19       MOL      H32      HGR61    0.115000       1.00800           0
       681 SYS      19       MOL      C33      CG2R61  -0.110000       12.0110           0
       682 SYS      19       MOL      H34      HGR61    0.115000       1.00800           0
       683 SYS      19       MOL      H35      HGR61    0.115000       1.00800           0
       684 SYS      19       MOL      H36      HGR61    0.115000       1.00800           0
       685 SYS      20       MOL      C1       CG2R61   0.100000E-01   12.0110           0
       686 SYS      20       MOL      C2       CG2R61  -0.125000       12.0110           0
       687 SYS      20       MOL      C3       CG2R61   0.100000E-01   12.0110           0
       688 SYS      20       MOL      C4       CG2R61  -0.125000       12.0110           0
       689 SYS      20       MOL      C5       CG2R61   0.500000E-02   12.0110           0
       690 SYS      20       MOL      H6       HGR61    0.115000       1.00800           0
       691 SYS      20       MOL      C7       CG2R61  -0.125000       12.0110           0
       692 SYS      20       MOL      C8       CG2R61  -0.125000       12.0110           0
       693 SYS      20       MOL      C9       CG2R61   0.100000E-01   12.0110           0
       694 SYS      20       MOL      H10      HGR61    0.115000       1.00800           0
       695 SYS      20       MOL      C11      CG2R61  -0.120000       12.0110           0
       696 SYS      20       MOL      C12      CG2R61   0.500000E-02   12.0110           0
       697 SYS      20       MOL      H13      HGR61    0.115000       1.00800           0
       698 SYS      20       MOL      H14      HGR61    0.115000       1.00800           0
       699 SYS      20       MOL      C15      CG2R61   0.100000E-01   12.0110           0
       700 SYS      20       MOL      C16      CG2R61  -0.125000       12.0110           0
       701 SYS      20       MOL      C17      CG2R61  -0.110000       12.0110           0
       702 SYS      20       MOL      H18      HGR61    0.115000       1.00800           0
       703 SYS      20       MOL      C19      CG2R61  -0.120000       12.0110           0
       704 SYS      20       MOL      C20      CG2R61  -0.125000       12.0110           0
       705 SYS      20       MOL      C21      CG2R61   0.500000E-02   12.0110           0
       706 SYS      20       MOL      H22      HGR61    0.115000       1.00800           0
       707 SYS      20       MOL      C23      CG2R61  -0.110000       12.0110           0
       708 SYS      20       MOL      H24      HGR61    0.115000       1.00800           0
       709 SYS      20       MOL      H25      HGR61    0.115000       1.00800           0
       710 SYS      20       MOL      H26      HGR61    0.115000       1.00800           0
       711 SYS      20       MOL      C27      CG2R61   0.500000E-02   12.0110           0
       712 SYS      20       MOL      C28      CG2R61  -0.120000       12.0110           0
       713 SYS      20       MOL      H29      HGR61    0.115000       1.00800           0
       714 SYS      20       MOL      C30      CG2R61  -0.120000       12.0110           0
       715 SYS      20       MOL      C31      CG2R61  -0.110000       12.0110           0
       716 SYS      20       MOL      H32      HGR61    0.115000       1.00800           0
       717 SYS      20       MOL      C33      CG2R61  -0.110000       12.0110           0
       718 SYS      20       MOL      H34      HGR61    0.115000       1.00800           0
       719 SYS      20       MOL      H35      HGR61    0.115000       1.00800           0
       720 SYS      20       MOL      H36      HGR61    0.115000       1.00800           0
       721 SYS      21       MOL      C1       CG2R61   0.100000E-01   12.0110           0
       722 SYS      21       MOL      C2       CG2R61  -0.125000       12.0110           0
       723 SYS      21       MOL      C3       CG2R61   0.100000E-01   12.0110           0
       724 SYS      21       MOL      C4       CG2R61  -0.125000       12.0110           0
       725 SYS      21       MOL      C5       CG2R61   0.500000E-02   12.0110           0
       726 SYS      21       MOL      H6       HGR61    0.115000       1.00800           0
       727 SYS      21       MOL      C7       CG2R61  -0.125000       12.0110           0
       728 SYS      21       MOL      C8       CG2R61  -0.125000       12.0110           0
       729 SYS      21       MOL      C9       CG2R61   0.100000E-01   12.0110           0
       730 SYS      21       MOL      H10      HGR61    0.115000       1.00800           0
       731 SYS      21       MOL      C11      CG2R61  -0.120000       12.0110           0
       732 SYS      21       MOL      C12      CG2R61   0.500000E-02   12.0110           0
       733 SYS      21       MOL      H13      HGR61    0.115000       1.00800           0
       734 SYS      21       MOL      H14      HGR61    0.115000       1.00800           0
       735 SYS      21       MOL      C15      CG2R61   0.100000E-01   12.0110           0
       736 SYS      21       MOL      C16      CG2R61  -0.125000       12.0110           0
       737 SYS      21       MOL      C17      CG2R61  -0.110000       12.0110           0
       738 SYS      21       MOL      H18      HGR61    0.115000       1.00800           0
       739 SYS      21       MOL      C19      CG2R61  -0.120000       12.0110           0
       740 SYS      21       MOL      C20      CG2R61  -0.125000       12.0110           0
       741 SYS      21       MOL      C21      CG2R61   0.500000E-02   12.0110           0
       742 SYS      21       MOL      H22      HGR61    0.115000       1.00800           0
       743 SYS      21       MOL      C23      CG2R61  -0.110000       12.0110           0
       744 SYS      21       MOL      H24      HGR61    0.115000       1.00800           0
       745 SYS      21       MOL      H25      HGR61    0.115000       1.00800           0
       746 SYS      21       MOL      H26      HGR61    0.115000       1.00800           0
       747 SYS      21       MOL      C27      CG2R61   0.500000E-02   12.0110           0
       748 SYS      21       MOL      C28      CG2R61  -0.120000       12.0110           0
       749 SYS      21       MOL      H29      HGR61    0.115000       1.00800           0
       750 SYS      21       MOL      C30      CG2R61  -0.120000       12.0110           0
       751 SYS      21       MOL      C31      CG2R61  -0.110000       12.0110           0
       752 SYS      21       MOL      H32      HGR61    0.115000       1.00800           0
       753 SYS      21       MOL      C33      CG2R61  -0.110000       12.0110           0
       754 SYS      21       MOL      H34      HGR61    0.115000       1.00800           0
       755 SYS      21       MOL      H35      HGR61    0.115000       1.00800           0
       756 SYS      21       MOL      H36      HGR61    0.115000       1.00800           0
       757 SYS      22       MOL      C1       CG2R61   0.100000E-01   12.0110           0
       758 SYS      22       MOL      C2       CG2R61  -0.125000       12.0110           0
       759 SYS      22       MOL      C3       CG2R61   0.100000E-01   12.0110           0
       760 SYS      22       MOL      C4       CG2R61  -0.125000       12.0110           0
       761 SYS      22       MOL      C5       CG2R61   0.500000E-02   12.0110           0
       762 SYS      22       MOL      H6       HGR61    0.115000       1.00800           0
       763 SYS      22       MOL      C7       CG2R61  -0.125000       12.0110           0
       764 SYS      22       MOL      C8       CG2R61  -0.125000       12.0110           0
       765 SYS      22       MOL      C9       CG2R61   0.100000E-01   12.0110           0
       766 SYS      22       MOL      H10      HGR61    0.115000       1.00800           0
       767 SYS      22       MOL      C11      CG2R61  -0.120000       12.0110           0
       768 SYS      22       MOL      C12      CG2R61   0.500000E-02   12.0110           0
       769 SYS      22       MOL      H13      HGR61    0.115000       1.00800           0
       770 SYS      22       MOL      H14      HGR61    0.115000       1.00800           0
       771 SYS      22       MOL      C15      CG2R61   0.100000E-01   12.0110           0
       772 SYS      22       MOL      C16      CG2R61  -0.125000       12.0110           0
       773 SYS      22       MOL      C17      CG2R61  -0.110000       12.0110           0
       774 SYS      22       MOL      H18      HGR61    0.115000       1.00800           0
       775 SYS      22       MOL      C19      CG2R61  -0.120000       12.0110           0
       776 SYS      22       MOL      C20      CG2R61  -0.125000       12.0110           0
       777 SYS      22       MOL      C21      CG2R61   0.500000E-02   12.0110           0
       778 SYS      22       MOL      H22      HGR61    0.115000       1.00800           0
       779 SYS      22       MOL      C23      CG2R61  -0.110000       12.0110           0
       780 SYS      22       MOL      H24      HGR61    0.115000       1.00800           0
       781 SYS      22       MOL      H25      HGR61    0.115000       1.00800           0
       782 SYS      22       MOL      H26      HGR61    0.115000       1.00800           0
       783 SYS      22       MOL      C27      CG2R61   0.500000E-02   12.0110           0
       784 SYS      22       MOL      C28      CG2R61  -0.120000       12.0110           0
       785 SYS      22       MOL      H29      HGR61    0.115000       1.00800           0
       786 SYS      22       MOL      C30      CG2R61  -0.120000       12.0110           0
       787 SYS      22       MOL      C31      CG2R61  -0.110000       12.0110           0
       788 SYS      22       MOL      H32      HGR61    0.115000       1.00800           0
       789 SYS      22       MOL      C33      CG2R61  -0.110000       12.0110           0
       790 SYS      22       MOL      H34      HGR61    0.115000       1.00800           0
       791 SYS      22       MOL      H35      HGR61    0.115000       1.00800           0
       792 SYS      22       MOL      H36      HGR61    0.115000       1.00800           0
       793 SYS      23       MOL      C1       CG2R61   0.100000E-01   12.0110           0
       794 SYS      23       MOL      C2       CG2R61  -0.125000       12.0110           0
       795 SYS      23       MOL      C3       CG2R61   0.100000E-01   12.0110           0
       796 SYS      23       MOL      C4       CG2R61  -0.125000       12.0110           0
       797 SYS      23       MOL      C5       CG2R61   0.500000E-02   12.0110           0
       798 SYS      23       MOL      H6       HGR61    0.115000       1.00800           0
       799 SYS      23       MOL      C7       CG2R61  -0.125000       12.0110           0
       800 SYS      23       MOL      C8       CG2R61  -0.125000       12.0110           0
       801 SYS      23       MOL      C9       CG2R61   0.100000E-01   12.0110           0
       802 SYS      23       MOL      H10      HGR61    0.115000       1.00800           0
       803 SYS      23       MOL      C11      CG2R61  -0.120000       12.0110           0
       804 SYS      23       MOL      C12      CG2R61   0.500000E-02   12.0110           0
       805 SYS      23       MOL      H13      HGR61    0.115000       1.00800           0
       806 SYS      23       MOL      H14      HGR61    0.115000       1.00800           0
       807 SYS      23       MOL      C15      CG2R61   0.100000E-01   12.0110           0
       808 SYS      23       MOL      C16      CG2R61  -0.125000       12.0110           0
       809 SYS      23       MOL      C17      CG2R61  -0.110000       12.0110           0
       810 SYS      23       MOL      H18      HGR61    0.115000       1.00800           0
       811 SYS      23       MOL      C19      CG2R61  -0.120000       12.0110           0
       812 SYS      23       MOL      C20      CG2R61  -0.125000       12.0110           0
       813 SYS      23       MOL      C21      CG2R61   0.500000E-02   12.0110           0
       814 SYS      23       MOL      H22      HGR61    0.115000       1.00800           0
       815 SYS      23       MOL      C23      CG2R61  -0.110000       12.0110           0
       816 SYS      23       MOL      H24      HGR61    0.115000       1.00800           0
       817 SYS      23       MOL      H25      HGR61    0.115000       1.00800           0
       818 SYS      23       MOL      H26      HGR61    0.115000       1.00800           0
       819 SYS      23       MOL      C27      CG2R61   0.500000E-02   12.0110           0
       820 SYS      23       MOL      C28      CG2R61  -0.120000       12.0110           0
       821 SYS      23       MOL      H29      HGR61    0.115000       1.00800           0
       822 SYS      23       MOL      C30      CG2R61  -0.120000       12.0110           0
       823 SYS      23       MOL      C31      CG2R61  -0.110000       12.0110           0
       824 SYS      23       MOL      H32      HGR61    0.115000       1.00800           0
       825 SYS      23       MOL      C33      CG2R61  -0.110000       12.0110           0
       826 SYS      23       MOL      H34      HGR61    0.115000       1.00800           0
       827 SYS      23       MOL      H35      HGR61    0.115000       1.00800           0
       828 SYS      23       MOL      H36      HGR61    0.115000       1.00800           0
       829 SYS      24       MOL      C1       CG2R61   0.100000E-01   12.0110           0
       830 SYS      24       MOL      C2       CG2R61  -0.125000       12.0110           0
       831 SYS      24       MOL      C3       CG2R61   0.100000E-01   12.0110           0
       832 SYS      24       MOL      C4       CG2R61  -0.125000       12.0110           0
       833 SYS      24       MOL      C5       CG2R61   0.500000E-02   12.0110           0
       834 SYS      24       MOL      H6       HGR61    0.115000       1.00800           0
       835 SYS      24       MOL      C7       CG2R61  -0.125000       12.0110           0
       836 SYS      24       MOL      C8       CG2R61  -0.125000       12.0110           0
       837 SYS      24       MOL      C9       CG2R61   0.100000E-01   12.0110           0
       838 SYS      24       MOL      H10      HGR61    0.115000       1.00800           0
       839 SYS      24       MOL      C11      CG2R61  -0.120000       12.0110           0
       840 SYS      24       MOL      C12      CG2R61   0.500000E-02   12.0110           0
       841 SYS      24       MOL      H13      HGR61    0.115000       1.00800           0
       842 SYS      24       MOL      H14      HGR61    0.115000       1.00800           0
       843 SYS      24       MOL      C15      CG2R61   0.100000E-01   12.0110           0
       844 SYS      24       MOL      C16      CG2R61  -0.125000       12.0110           0
       845 SYS      24       MOL      C17      CG2R61  -0.110000       12.0110           0
       846 SYS      24       MOL      H18      HGR61    0.115000       1.00800           0
       847 SYS      24       MOL      C19      CG2R61  -0.120000       12.0110           0
       848 SYS      24       MOL      C20      CG2R61  -0.125000       12.0110           0
       849 SYS      24       MOL      C21      CG2R61   0.500000E-02   12.0110           0
       850 SYS      24       MOL      H22      HGR61    0.115000       1.00800           0
       851 SYS      24       MOL      C23      CG2R61  -0.110000       12.0110           0
       852 SYS      24       MOL      H24      HGR61    0.115000       1.00800           0
       853 SYS      24       MOL      H25      HGR61    0.115000       1.00800           0
       854 SYS      24       MOL      H26      HGR61    0.115000       1.00800           0
       855 SYS      24       MOL      C27      CG2R61   0.500000E-02   12.0110           0
       856 SYS      24       MOL      C28      CG2R61  -0.120000       12.0110           0
       857 SYS      24       MOL      H29      HGR61    0.115000       1.00800           0
       858 SYS      24       MOL      C30      CG2R61  -0.120000       12.0110           0
       859 SYS      24       MOL      C31      CG2R61  -0.110000       12.0110           0
       860 SYS      24       MOL      H32      HGR61    0.115000       1.00800           0
       861 SYS      24       MOL      C33      CG2R61  -0.110000       12.0110           0
       862 SYS      24       MOL      H34      HGR61    0.115000       1.00800           0
       863 SYS      24       MOL      H35      HGR61    0.115000       1.00800           0
       864 SYS      24       MOL      H36      HGR61    0.115000       1.00800           0
       865 SYS      25       MOL      C1       CG2R61   0.100000E-01   12.0110           0
       866 SYS      25       MOL      C2       CG2R61  -0.125000       12.0110           0
       867 SYS      25       MOL      C3       CG2R61   0.100000E-01   12.0110           0
       868 SYS      25       MOL      C4       CG2R61  -0.125000       12.0110           0
       869 SYS      25       MOL      C5       CG2R61   0.500000E-02   12.0110           0
       870 SYS      25       MOL      H6       HGR61    0.115000       1.00800           0
       871 SYS      25       MOL      C7       CG2R61  -0.125000       12.0110           0
       872 SYS      25       MOL      C8       CG2R61  -0.125000       12.0110           0
       873 SYS      25       MOL      C9       CG2R61   0.100000E-01   12.0110           0
       874 SYS      25       MOL      H10      HGR61    0.115000       1.00800           0
       875 SYS      25       MOL      C11      CG2R61  -0.120000       12.0110           0
       876 SYS      25       MOL      C12      CG2R61   0.500000E-02   12.0110           0
       877 SYS      25       MOL      H13      HGR61    0.115000       1.00800           0
       878 SYS      25       MOL      H14      HGR61    0.115000       1.00800           0
       879 SYS      25       MOL      C15      CG2R61   0.100000E-01   12.0110           0
       880 SYS      25       MOL      C16      CG2R61  -0.125000       12.0110           0
       881 SYS      25       MOL      C17      CG2R61  -0.110000       12.0110           0
       882 SYS      25       MOL      H18      HGR61    0.115000       1.00800           0
       883 SYS      25       MOL      C19      CG2R61  -0.120000       12.0110           0
       884 SYS      25       MOL      C20      CG2R61  -0.125000       12.0110           0
       885 SYS      25       MOL      C21      CG2R61   0.500000E-02   12.0110           0
       886 SYS      25       MOL      H22      HGR61    0.115000       1.00800           0
       887 SYS      25       MOL      C23      CG2R61  -0.110000       12.0110           0
       888 SYS      25       MOL      H24      HGR61    0.115000       1.00800           0
       889 SYS      25       MOL      H25      HGR61    0.115000       1.00800           0
       890 SYS      25       MOL      H26      HGR61    0.115000       1.00800           0
       891 SYS      25       MOL      C27      CG2R61   0.500000E-02   12.0110           0
       892 SYS      25       MOL      C28      CG2R61  -0.120000       12.0110           0
       893 SYS      25       MOL      H29      HGR61    0.115000       1.00800           0
       894 SYS      25       MOL      C30      CG2R61  -0.120000       12.0110           0
       895 SYS      25       MOL      C31      CG2R61  -0.110000       12.0110           0
       896 SYS      25       MOL      H32      HGR61    0.115000       1.00800           0
       897 SYS      25       MOL      C33      CG2R61  -0.110000       12.0110           0
       898 SYS      25       MOL      H34      HGR61    0.115000       1.00800           0
       899 SYS      25       MOL      H35      HGR61    0.115000       1.00800           0
       900 SYS      25       MOL      H36      HGR61    0.115000       1.00800           0
       901 SYS      26       MOL      C1       CG2R61   0.100000E-01   12.0110           0
       902 SYS      26       MOL      C2       CG2R61  -0.125000       12.0110           0
       903 SYS      26       MOL      C3       CG2R61   0.100000E-01   12.0110           0
       904 SYS      26       MOL      C4       CG2R61  -0.125000       12.0110           0
       905 SYS      26       MOL      C5       CG2R61   0.500000E-02   12.0110           0
       906 SYS      26       MOL      H6       HGR61    0.115000       1.00800           0
       907 SYS      26       MOL      C7       CG2R61  -0.125000       12.0110           0
       908 SYS      26       MOL      C8       CG2R61  -0.125000       12.0110           0
       909 SYS      26       MOL      C9       CG2R61   0.100000E-01   12.0110           0
       910 SYS      26       MOL      H10      HGR61    0.115000       1.00800           0
       911 SYS      26       MOL      C11      CG2R61  -0.120000       12.0110           0
       912 SYS      26       MOL      C12      CG2R61   0.500000E-02   12.0110           0
       913 SYS      26       MOL      H13      HGR61    0.115000       1.00800           0
       914 SYS      26       MOL      H14      HGR61    0.115000       1.00800           0
       915 SYS      26       MOL      C15      CG2R61   0.100000E-01   12.0110           0
       916 SYS      26       MOL      C16      CG2R61  -0.125000       12.0110           0
       917 SYS      26       MOL      C17      CG2R61  -0.110000       12.0110           0
       918 SYS      26       MOL      H18      HGR61    0.115000       1.00800           0
       919 SYS      26       MOL      C19      CG2R61  -0.120000       12.0110           0
       920 SYS      26       MOL      C20      CG2R61  -0.125000       12.0110           0
       921 SYS      26       MOL      C21      CG2R61   0.500000E-02   12.0110           0
       922 SYS      26       MOL      H22      HGR61    0.115000       1.00800           0
       923 SYS      26       MOL      C23      CG2R61  -0.110000       12.0110           0
       924 SYS      26       MOL      H24      HGR61    0.115000       1.00800           0
       925 SYS      26       MOL      H25      HGR61    0.115000       1.00800           0
       926 SYS      26       MOL      H26      HGR61    0.115000       1.00800           0
       927 SYS      26       MOL      C27      CG2R61   0.500000E-02   12.0110           0
       928 SYS      26       MOL      C28      CG2R61  -0.120000       12.0110           0
       929 SYS      26       MOL      H29      HGR61    0.115000       1.00800           0
       930 SYS      26       MOL      C30      CG2R61  -0.120000       12.0110           0
       931 SYS      26       MOL      C31      CG2R61  -0.110000       12.0110           0
       932 SYS      26       MOL      H32      HGR61    0.115000       1.00800           0
       933 SYS      26       MOL      C33      CG2R61  -0.110000       12.0110           0
       934 SYS      26       MOL      H34      HGR61    0.115000       1.00800           0
       935 SYS      26       MOL      H35      HGR61    0.115000       1.00800           0
       936 SYS      26       MOL      H36      HGR61    0.115000       1.00800           0
       937 SYS      27       MOL      C1       CG2R61   0.100000E-01   12.0110           0
       938 SYS      27       MOL      C2       CG2R61  -0.125000       12.0110           0
       939 SYS      27       MOL      C3       CG2R61   0.100000E-01   12.0110           0
       940 SYS      27       MOL      C4       CG2R61  -0.125000       12.0110           0
       941 SYS      27       MOL      C5       CG2R61   0.500000E-02   12.0110           0
       942 SYS      27       MOL      H6       HGR61    0.115000       1.00800           0
       943 SYS      27       MOL      C7       CG2R61  -0.125000       12.0110           0
       944 SYS      27       MOL      C8       CG2R61  -0.125000       12.0110           0
       945 SYS      27       MOL      C9       CG2R61   0.100000E-01   12.0110           0
       946 SYS      27       MOL      H10      HGR61    0.115000       1.00800           0
       947 SYS      27       MOL      C11      CG2R61  -0.120000       12.0110           0
       948 SYS      27       MOL      C12      CG2R61   0.500000E-02   12.0110           0
       949 SYS      27       MOL      H13      HGR61    0.115000       1.00800           0
       950 SYS      27       MOL      H14      HGR61    0.115000       1.00800           0
       951 SYS      27       MOL      C15      CG2R61   0.100000E-01   12.0110           0
       952 SYS      27       MOL      C16      CG2R61  -0.125000       12.0110           0
       953 SYS      27       MOL      C17      CG2R61  -0.110000       12.0110           0
       954 SYS      27       MOL      H18      HGR61    0.115000       1.00800           0
       955 SYS      27       MOL      C19      CG2R61  -0.120000       12.0110           0
       956 SYS      27       MOL      C20      CG2R61  -0.125000       12.0110           0
       957 SYS      27       MOL      C21      CG2R61   0.500000E-02   12.0110           0
       958 SYS      27       MOL      H22      HGR61    0.115000       1.00800           0
       959 SYS      27       MOL      C23      CG2R61  -0.110000       12.0110           0
       960 SYS      27       MOL      H24      HGR61    0.115000       1.00800           0
       961 SYS      27       MOL      H25      HGR61    0.115000       1.00800           0
       962 SYS      27       MOL      H26      HGR61    0.115000       1.00800           0
       963 SYS      27       MOL      C27      CG2R61   0.500000E-02   12.0110           0
       964 SYS      27       MOL      C28      CG2R61  -0.120000       12.0110           0
       965 SYS      27       MOL      H29      HGR61    0.115000       1.00800           0
       966 SYS      27       MOL      C30      CG2R61  -0.120000       12.0110           0
       967 SYS      27       MOL      C31      CG2R61  -0.110000       12.0110           0
       968 SYS      27       MOL      H32      HGR61    0.115000       1.00800           0
       969 SYS      27       MOL      C33      CG2R61  -0.110000       12.0110           0
       970 SYS      27       MOL      H34      HGR61    0.115000       1.00800           0
       971 SYS      27       MOL      H35      HGR61    0.115000       1.00800           0
       972 SYS      27       MOL      H36      HGR61    0.115000       1.00800           0
       973 SYS      28       MOL      C1       CG2R61   0.100000E-01   12.0110           0
       974 SYS      28       MOL      C2       CG2R61  -0.125000       12.0110           0
       975 SYS      28       MOL      C3       CG2R61   0.100000E-01   12.0110           0
       976 SYS      28       MOL      C4       CG2R61  -0.125000       12.0110           0
       977 SYS      28       MOL      C5       CG2R61   0.500000E-02   12.0110           0
       978 SYS      28       MOL      H6       HGR61    0.115000       1.00800           0
       979 SYS      28       MOL      C7       CG2R61  -0.125000       12.0110           0
       980 SYS      28       MOL      C8       CG2R61  -0.125000       12.0110           0
       981 SYS      28       MOL      C9       CG2R61   0.100000E-01   12.0110           0
       982 SYS      28       MOL      H10      HGR61    0.115000       1.00800           0
       983 SYS      28       MOL      C11      CG2R61  -0.120000       12.0110           0
       984 SYS      28       MOL      C12      CG2R61   0.500000E-02   12.0110           0
       985 SYS      28       MOL      H13      HGR61    0.115000       1.00800           0
       986 SYS      28       MOL      H14      HGR61    0.115000       1.00800           0
       987 SYS      28       MOL      C15      CG2R61   0.100000E-01   12.0110           0
       988 SYS      28       MOL      C16      CG2R61  -0.125000       12.0110           0
       989 SYS      28       MOL      C17      CG2R61  -0.110000       12.0110           0
       990 SYS      28       MOL      H18      HGR61    0.115000       1.00800           0
       991 SYS      28       MOL      C19      CG2R61  -0.120000       12.0110           0
       992 SYS      28       MOL      C20      CG2R61  -0.125000       12.0110           0
       993 SYS      28       MOL      C21      CG2R61   0.500000E-02   12.0110           0
       994 SYS      28       MOL      H22      HGR61    0.115000       1.00800           0
       995 SYS      28       MOL      C23      CG2R61  -0.110000       12.0110           0
       996 SYS      28       MOL      H24      HGR61    0.115000       1.00800           0
       997 SYS      28       MOL      H25      HGR61    0.115000       1.00800           0
       998 SYS      28       MOL      H26      HGR61    0.115000       1.00800           0
       999 SYS      28       MOL      C27      CG2R61   0.500000E-02   12.0110           0
      1000 SYS      28       MOL      C28      CG2R61  -0.120000       12.0110           0
      1001 SYS      28       MOL      H29      HGR61    0.115000       1.00800           0
      1002 SYS      28       MOL      C30      CG2R61  -0.120000       12.0110           0
      1003 SYS      28       MOL      C31      CG2R61  -0.110000       12.0110           0
      1004 SYS      28       MOL      H32      HGR61    0.115000       1.00800           0
      1005 SYS      28       MOL      C33      CG2R61  -0.110000       12.0110           0
      1006 SYS      28       MOL      H34      HGR61    0.115000       1.00800           0
      1007 SYS      28       MOL      H35      HGR61    0.115000       1.00800           0
      1008 SYS      28       MOL      H36      HGR61    0.115000       1.00800           0
      1009 SYS      29       MOL      C1       CG2R61   0.100000E-01   12.0110           0
      1010 SYS      29       MOL      C2       CG2R61  -0.125000       12.0110           0
      1011 SYS      29       MOL      C3       CG2R61   0.100000E-01   12.0110           0
      1012 SYS      29       MOL      C4       CG2R61  -0.125000       12.0110           0
      1013 SYS      29       MOL      C5       CG2R61   0.500000E-02   12.0110           0
      1014 SYS      29       MOL      H6       HGR61    0.115000       1.00800           0
      1015 SYS      29       MOL      C7       CG2R61  -0.125000       12.0110           0
      1016 SYS      29       MOL      C8       CG2R61  -0.125000       12.0110           0
      1017 SYS      29       MOL      C9       CG2R61   0.100000E-01   12.0110           0
      1018 SYS      29       MOL      H10      HGR61    0.115000       1.00800           0
      1019 SYS      29       MOL      C11      CG2R61  -0.120000       12.0110           0
      1020 SYS      29       MOL      C12      CG2R61   0.500000E-02   12.0110           0
      1021 SYS      29       MOL      H13      HGR61    0.115000       1.00800           0
      1022 SYS      29       MOL      H14      HGR61    0.115000       1.00800           0
      1023 SYS      29       MOL      C15      CG2R61   0.100000E-01   12.0110           0
      1024 SYS      29       MOL      C16      CG2R61  -0.125000       12.0110           0
      1025 SYS      29       MOL      C17      CG2R61  -0.110000       12.0110           0
      1026 SYS      29       MOL      H18      HGR61    0.115000       1.00800           0
      1027 SYS      29       MOL      C19      CG2R61  -0.120000       12.0110           0
      1028 SYS      29       MOL      C20      CG2R61  -0.125000       12.0110           0
      1029 SYS      29       MOL      C21      CG2R61   0.500000E-02   12.0110           0
      1030 SYS      29       MOL      H22      HGR61    0.115000       1.00800           0
      1031 SYS      29       MOL      C23      CG2R61  -0.110000       12.0110           0
      1032 SYS      29       MOL      H24      HGR61    0.115000       1.00800           0
      1033 SYS      29       MOL      H25      HGR61    0.115000       1.00800           0
      1034 SYS      29       MOL      H26      HGR61    0.115000       1.00800           0
      1035 SYS      29       MOL      C27      CG2R61   0.500000E-02   12.0110           0
      1036 SYS      29       MOL      C28      CG2R61  -0.120000       12.0110           0
      1037 SYS      29       MOL      H29      HGR61    0.115000       1.00800           0
      1038 SYS      29       MOL      C30      CG2R61  -0.120000       12.0110           0
      1039 SYS      29       MOL      C31      CG2R61  -0.110000       12.0110           0
      1040 SYS      29       MOL      H32      HGR61    0.115000       1.00800           0
      1041 SYS      29       MOL      C33      CG2R61  -0.110000       12.0110           0
      1042 SYS      29       MOL      H34      HGR61    0.115000       1.00800           0
      1043 SYS      29       MOL      H35      HGR61    0.115000       1.00800           0
      1044 SYS      29       MOL      H36      HGR61    0.115000       1.00800           0
      1045 SYS      30       MOL      C1       CG2R61   0.100000E-01   12.0110           0
      1046 SYS      30       MOL      C2       CG2R61  -0.125000       12.0110           0
      1047 SYS      30       MOL      C3       CG2R61   0.100000E-01   12.0110           0
      1048 SYS      30       MOL      C4       CG2R61  -0.125000       12.0110           0
      1049 SYS      30       MOL      C5       CG2R61   0.500000E-02   12.0110           0
      1050 SYS      30       MOL      H6       HGR61    0.115000       1.00800           0
      1051 SYS      30       MOL      C7       CG2R61  -0.125000       12.0110           0
      1052 SYS      30       MOL      C8       CG2R61  -0.125000       12.0110           0
      1053 SYS      30       MOL      C9       CG2R61   0.100000E-01   12.0110           0
      1054 SYS      30       MOL      H10      HGR61    0.115000       1.00800           0
      1055 SYS      30       MOL      C11      CG2R61  -0.120000       12.0110           0
      1056 SYS      30       MOL      C12      CG2R61   0.500000E-02   12.0110           0
      1057 SYS      30       MOL      H13      HGR61    0.115000       1.00800           0
      1058 SYS      30       MOL      H14      HGR61    0.115000       1.00800           0
      1059 SYS      30       MOL      C15      CG2R61   0.100000E-01   12.0110           0
      1060 SYS      30       MOL      C16      CG2R61  -0.125000       12.0110           0
      1061 SYS      30       MOL      C17      CG2R61  -0.110000       12.0110           0
      1062 SYS      30       MOL      H18      HGR61    0.115000       1.00800           0
      1063 SYS      30       MOL      C19      CG2R61  -0.120000       12.0110           0
      1064 SYS      30       MOL      C20      CG2R61  -0.125000       12.0110           0
      1065 SYS      30       MOL      C21      CG2R61   0.500000E-02   12.0110           0
      1066 SYS      30       MOL      H22      HGR61    0.115000       1.00800           0
      1067 SYS      30       MOL      C23      CG2R61  -0.110000       12.0110           0
      1068 SYS      30       MOL      H24      HGR61    0.115000       1.00800           0
      1069 SYS      30       MOL      H25      HGR61    0.115000       1.00800           0
      1070 SYS      30       MOL      H26      HGR61    0.115000       1.00800           0
      1071 SYS      30       MOL      C27      CG2R61   0.500000E-02   12.0110           0
      1072 SYS      30       MOL      C28      CG2R61  -0.120000       12.0110           0
      1073 SYS      30       MOL      H29      HGR61    0.115000       1.00800           0
      1074 SYS      30       MOL      C30      CG2R61  -0.120000       12.0110           0
      1075 SYS      30       MOL      C31      CG2R61  -0.110000       12.0110           0
      1076 SYS      30       MOL      H32      HGR61    0.115000       1.00800           0
      1077 SYS      30       MOL      C33      CG2R61  -0.110000       12.0110           0
      1078 SYS      30       MOL      H34      HGR61    0.115000       1.00800           0
      1079 SYS      30       MOL      H35      HGR61    0.115000       1.00800           0
      1080 SYS      30       MOL      H36      HGR61    0.115000       1.00800           0
      1081 SYS      31       MOL      C1       CG2R61   0.100000E-01   12.0110           0
      1082 SYS      31       MOL      C2       CG2R61  -0.125000       12.0110           0
      1083 SYS      31       MOL      C3       CG2R61   0.100000E-01   12.0110           0
      1084 SYS      31       MOL      C4       CG2R61  -0.125000       12.0110           0
      1085 SYS      31       MOL      C5       CG2R61   0.500000E-02   12.0110           0
      1086 SYS      31       MOL      H6       HGR61    0.115000       1.00800           0
      1087 SYS      31       MOL      C7       CG2R61  -0.125000       12.0110           0
      1088 SYS      31       MOL      C8       CG2R61  -0.125000       12.0110           0
      1089 SYS      31       MOL      C9       CG2R61   0.100000E-01   12.0110           0
      1090 SYS      31       MOL      H10      HGR61    0.115000       1.00800           0
      1091 SYS      31       MOL      C11      CG2R61  -0.120000       12.0110           0
      1092 SYS      31       MOL      C12      CG2R61   0.500000E-02   12.0110           0
      1093 SYS      31       MOL      H13      HGR61    0.115000       1.00800           0
      1094 SYS      31       MOL      H14      HGR61    0.115000       1.00800           0
      1095 SYS      31       MOL      C15      CG2R61   0.100000E-01   12.0110           0
      1096 SYS      31       MOL      C16      CG2R61  -0.125000       12.0110           0
      1097 SYS      31       MOL      C17      CG2R61  -0.110000       12.0110           0
      1098 SYS      31       MOL      H18      HGR61    0.115000       1.00800           0
      1099 SYS      31       MOL      C19      CG2R61  -0.120000       12.0110           0
      1100 SYS      31       MOL      C20      CG2R61  -0.125000       12.0110           0
      1101 SYS      31       MOL      C21      CG2R61   0.500000E-02   12.0110           0
      1102 SYS      31       MOL      H22      HGR61    0.115000       1.00800           0
      1103 SYS      31       MOL      C23      CG2R61  -0.110000       12.0110           0
      1104 SYS      31       MOL      H24      HGR61    0.115000       1.00800           0
      1105 SYS      31       MOL      H25      HGR61    0.115000       1.00800           0
      1106 SYS      31       MOL      H26      HGR61    0.115000       1.00800           0
      1107 SYS      31       MOL      C27      CG2R61   0.500000E-02   12.0110           0
      1108 SYS      31       MOL      C28      CG2R61  -0.120000       12.0110           0
      1109 SYS      31       MOL      H29      HGR61    0.115000       1.00800           0
      1110 SYS      31       MOL      C30      CG2R61  -0.120000       12.0110           0
      1111 SYS      31       MOL      C31      CG2R61  -0.110000       12.0110           0
      1112 SYS      31       MOL      H32      HGR61    0.115000       1.00800           0
      1113 SYS      31       MOL      C33      CG2R61  -0.110000       12.0110           0
      1114 SYS      31       MOL      H34      HGR61    0.115000       1.00800           0
      1115 SYS      31       MOL      H35      HGR61    0.115000       1.00800           0
      1116 SYS      31       MOL      H36      HGR61    0.115000       1.00800           0
      1117 SYS      32       MOL      C1       CG2R61   0.100000E-01   12.0110           0
      1118 SYS      32       MOL      C2       CG2R61  -0.125000       12.0110           0
      1119 SYS      32       MOL      C3       CG2R61   0.100000E-01   12.0110           0
      1120 SYS      32       MOL      C4       CG2R61  -0.125000       12.0110           0
      1121 SYS      32       MOL      C5       CG2R61   0.500000E-02   12.0110           0
      1122 SYS      32       MOL      H6       HGR61    0.115000       1.00800           0
      1123 SYS      32       MOL      C7       CG2R61  -0.125000       12.0110           0
      1124 SYS      32       MOL      C8       CG2R61  -0.125000       12.0110           0
      1125 SYS      32       MOL      C9       CG2R61   0.100000E-01   12.0110           0
      1126 SYS      32       MOL      H10      HGR61    0.115000       1.00800           0
      1127 SYS      32       MOL      C11      CG2R61  -0.120000       12.0110           0
      1128 SYS      32       MOL      C12      CG2R61   0.500000E-02   12.0110           0
      1129 SYS      32       MOL      H13      HGR61    0.115000       1.00800           0
      1130 SYS      32       MOL      H14      HGR61    0.115000       1.00800           0
      1131 SYS      32       MOL      C15      CG2R61   0.100000E-01   12.0110           0
      1132 SYS      32       MOL      C16      CG2R61  -0.125000       12.0110           0
      1133 SYS      32       MOL      C17      CG2R61  -0.110000       12.0110           0
      1134 SYS      32       MOL      H18      HGR61    0.115000       1.00800           0
      1135 SYS      32       MOL      C19      CG2R61  -0.120000       12.0110           0
      1136 SYS      32       MOL      C20      CG2R61  -0.125000       12.0110           0
      1137 SYS      32       MOL      C21      CG2R61   0.500000E-02   12.0110           0
      1138 SYS      32       MOL      H22      HGR61    0.115000       1.00800           0
      1139 SYS      32       MOL      C23      CG2R61  -0.110000       12.0110           0
      1140 SYS      32       MOL      H24      HGR61    0.115000       1.00800           0
      1141 SYS      32       MOL      H25      HGR61    0.115000       1.00800           0
      1142 SYS      32       MOL      H26      HGR61    0.115000       1.00800           0
      1143 SYS      32       MOL      C27      CG2R61   0.500000E-02   12.0110           0
      1144 SYS      32       MOL      C28      CG2R61  -0.120000       12.0110           0
      1145 SYS      32       MOL      H29      HGR61    0.115000       1.00800           0
      1146 SYS      32       MOL      C30      CG2R61  -0.120000       12.0110           0
      1147 SYS      32       MOL      C31      CG2R61  -0.110000       12.0110           0
      1148 SYS      32       MOL      H32      HGR61    0.115000       1.00800           0
      1149 SYS      32       MOL      C33      CG2R61  -0.110000       12.0110           0
      1150 SYS      32       MOL      H34      HGR61    0.115000       1.00800           0
      1151 SYS      32       MOL      H35      HGR61    0.115000       1.00800           0
      1152 SYS      32       MOL      H36      HGR61    0.115000       1.00800           0
      1153 SYS      33       MOL      C1       CG2R61   0.100000E-01   12.0110           0
      1154 SYS      33       MOL      C2       CG2R61  -0.125000       12.0110           0
      1155 SYS      33       MOL      C3       CG2R61   0.100000E-01   12.0110           0
      1156 SYS      33       MOL      C4       CG2R61  -0.125000       12.0110           0
      1157 SYS      33       MOL      C5       CG2R61   0.500000E-02   12.0110           0
      1158 SYS      33       MOL      H6       HGR61    0.115000       1.00800           0
      1159 SYS      33       MOL      C7       CG2R61  -0.125000       12.0110           0
      1160 SYS      33       MOL      C8       CG2R61  -0.125000       12.0110           0
      1161 SYS      33       MOL      C9       CG2R61   0.100000E-01   12.0110           0
      1162 SYS      33       MOL      H10      HGR61    0.115000       1.00800           0
      1163 SYS      33       MOL      C11      CG2R61  -0.120000       12.0110           0
      1164 SYS      33       MOL      C12      CG2R61   0.500000E-02   12.0110           0
      1165 SYS      33       MOL      H13      HGR61    0.115000       1.00800           0
      1166 SYS      33       MOL      H14      HGR61    0.115000       1.00800           0
      1167 SYS      33       MOL      C15      CG2R61   0.100000E-01   12.0110           0
      1168 SYS      33       MOL      C16      CG2R61  -0.125000       12.0110           0
      1169 SYS      33       MOL      C17      CG2R61  -0.110000       12.0110           0
      1170 SYS      33       MOL      H18      HGR61    0.115000       1.00800           0
      1171 SYS      33       MOL      C19      CG2R61  -0.120000       12.0110           0
      1172 SYS      33       MOL      C20      CG2R61  -0.125000       12.0110           0
      1173 SYS      33       MOL      C21      CG2R61   0.500000E-02   12.0110           0
      1174 SYS      33       MOL      H22      HGR61    0.115000       1.00800           0
      1175 SYS      33       MOL      C23      CG2R61  -0.110000       12.0110           0
      1176 SYS      33       MOL      H24      HGR61    0.115000       1.00800           0
      1177 SYS      33       MOL      H25      HGR61    0.115000       1.00800           0
      1178 SYS      33       MOL      H26      HGR61    0.115000       1.00800           0
      1179 SYS      33       MOL      C27      CG2R61   0.500000E-02   12.0110           0
      1180 SYS      33       MOL      C28      CG2R61  -0.120000       12.0110           0
      1181 SYS      33       MOL      H29      HGR61    0.115000       1.00800           0
      1182 SYS      33       MOL      C30      CG2R61  -0.120000       12.0110           0
      1183 SYS      33       MOL      C31      CG2R61  -0.110000       12.0110           0
      1184 SYS      33       MOL      H32      HGR61    0.115000       1.00800           0
      1185 SYS      33       MOL      C33      CG2R61  -0.110000       12.0110           0
      1186 SYS      33       MOL      H34      HGR61    0.115000       1.00800           0
      1187 SYS      33       MOL      H35      HGR61    0.115000       1.00800           0
      1188 SYS      33       MOL      H36      HGR61    0.115000       1.00800           0
      1189 SYS      34       MOL      C1       CG2R61   0.100000E-01   12.0110           0
      1190 SYS      34       MOL      C2       CG2R61  -0.125000       12.0110           0
      1191 SYS      34       MOL      C3       CG2R61   0.100000E-01   12.0110           0
      1192 SYS      34       MOL      C4       CG2R61  -0.125000       12.0110           0
      1193 SYS      34       MOL      C5       CG2R61   0.500000E-02   12.0110           0
      1194 SYS      34       MOL      H6       HGR61    0.115000       1.00800           0
      1195 SYS      34       MOL      C7       CG2R61  -0.125000       12.0110           0
      1196 SYS      34       MOL      C8       CG2R61  -0.125000       12.0110           0
      1197 SYS      34       MOL      C9       CG2R61   0.100000E-01   12.0110           0
      1198 SYS      34       MOL      H10      HGR61    0.115000       1.00800           0
      1199 SYS      34       MOL      C11      CG2R61  -0.120000       12.0110           0
      1200 SYS      34       MOL      C12      CG2R61   0.500000E-02   12.0110           0
      1201 SYS      34       MOL      H13      HGR61    0.115000       1.00800           0
      1202 SYS      34       MOL      H14      HGR61    0.115000       1.00800           0
      1203 SYS      34       MOL      C15      CG2R61   0.100000E-01   12.0110           0
      1204 SYS      34       MOL      C16      CG2R61  -0.125000       12.0110           0
      1205 SYS      34       MOL      C17      CG2R61  -0.110000       12.0110           0
      1206 SYS      34       MOL      H18      HGR61    0.115000       1.00800           0
      1207 SYS      34       MOL      C19      CG2R61  -0.120000       12.0110           0
      1208 SYS      34       MOL      C20      CG2R61  -0.125000       12.0110           0
      1209 SYS      34       MOL      C21      CG2R61   0.500000E-02   12.0110           0
      1210 SYS      34       MOL      H22      HGR61    0.115000       1.00800           0
      1211 SYS      34       MOL      C23      CG2R61  -0.110000       12.0110           0
      1212 SYS      34       MOL      H24      HGR61    0.115000       1.00800           0
      1213 SYS      34       MOL      H25      HGR61    0.115000       1.00800           0
      1214 SYS      34       MOL      H26      HGR61    0.115000       1.00800           0
      1215 SYS      34       MOL      C27      CG2R61   0.500000E-02   12.0110           0
      1216 SYS      34       MOL      C28      CG2R61  -0.120000       12.0110           0
      1217 SYS      34       MOL      H29      HGR61    0.115000       1.00800           0
      1218 SYS      34       MOL      C30      CG2R61  -0.120000       12.0110           0
      1219 SYS      34       MOL      C31      CG2R61  -0.110000       12.0110           0
      1220 SYS      34       MOL      H32      HGR61    0.115000       1.00800           0
      1221 SYS      34       MOL      C33      CG2R61  -0.110000       12.0110           0
      1222 SYS      34       MOL      H34      HGR61    0.115000       1.00800           0
      1223 SYS      34       MOL      H35      HGR61    0.115000       1.00800           0
      1224 SYS      34       MOL      H36      HGR61    0.115000       1.00800           0
      1225 SYS      35       MOL      C1       CG2R61   0.100000E-01   12.0110           0
      1226 SYS      35       MOL      C2       CG2R61  -0.125000       12.0110           0
      1227 SYS      35       MOL      C3       CG2R61   0.100000E-01   12.0110           0
      1228 SYS      35       MOL      C4       CG2R61  -0.125000       12.0110           0
      1229 SYS      35       MOL      C5       CG2R61   0.500000E-02   12.0110           0
      1230 SYS      35       MOL      H6       HGR61    0.115000       1.00800           0
      1231 SYS      35       MOL      C7       CG2R61  -0.125000       12.0110           0
      1232 SYS      35       MOL      C8       CG2R61  -0.125000       12.0110           0
      1233 SYS      35       MOL      C9       CG2R61   0.100000E-01   12.0110           0
      1234 SYS      35       MOL      H10      HGR61    0.115000       1.00800           0
      1235 SYS      35       MOL      C11      CG2R61  -0.120000       12.0110           0
      1236 SYS      35       MOL      C12      CG2R61   0.500000E-02   12.0110           0
      1237 SYS      35       MOL      H13      HGR61    0.115000       1.00800           0
      1238 SYS      35       MOL      H14      HGR61    0.115000       1.00800           0
      1239 SYS      35       MOL      C15      CG2R61   0.100000E-01   12.0110           0
      1240 SYS      35       MOL      C16      CG2R61  -0.125000       12.0110           0
      1241 SYS      35       MOL      C17      CG2R61  -0.110000       12.0110           0
      1242 SYS      35       MOL      H18      HGR61    0.115000       1.00800           0
      1243 SYS      35       MOL      C19      CG2R61  -0.120000       12.0110           0
      1244 SYS      35       MOL      C20      CG2R61  -0.125000       12.0110           0
      1245 SYS      35       MOL      C21      CG2R61   0.500000E-02   12.0110           0
      1246 SYS      35       MOL      H22      HGR61    0.115000       1.00800           0
      1247 SYS      35       MOL      C23      CG2R61  -0.110000       12.0110           0
      1248 SYS      35       MOL      H24      HGR61    0.115000       1.00800           0
      1249 SYS      35       MOL      H25      HGR61    0.115000       1.00800           0
      1250 SYS      35       MOL      H26      HGR61    0.115000       1.00800           0
      1251 SYS      35       MOL      C27      CG2R61   0.500000E-02   12.0110           0
      1252 SYS      35       MOL      C28      CG2R61  -0.120000       12.0110           0
      1253 SYS      35       MOL      H29      HGR61    0.115000       1.00800           0
      1254 SYS      35       MOL      C30      CG2R61  -0.120000       12.0110           0
      1255 SYS      35       MOL      C31      CG2R61  -0.110000       12.0110           0
      1256 SYS      35       MOL      H32      HGR61    0.115000       1.00800           0
      1257 SYS      35       MOL      C33      CG2R61  -0.110000       12.0110           0
      1258 SYS      35       MOL      H34      HGR61    0.115000       1.00800           0
      1259 SYS      35       MOL      H35      HGR61    0.115000       1.00800           0
      1260 SYS      35       MOL      H36      HGR61    0.115000       1.00800           0
      1261 SYS      36       MOL      C1       CG2R61   0.100000E-01   12.0110           0
      1262 SYS      36       MOL      C2       CG2R61  -0.125000       12.0110           0
      1263 SYS      36       MOL      C3       CG2R61   0.100000E-01   12.0110           0
      1264 SYS      36       MOL      C4       CG2R61  -0.125000       12.0110           0
      1265 SYS      36       MOL      C5       CG2R61   0.500000E-02   12.0110           0
      1266 SYS      36       MOL      H6       HGR61    0.115000       1.00800           0
      1267 SYS      36       MOL      C7       CG2R61  -0.125000       12.0110           0
      1268 SYS      36       MOL      C8       CG2R61  -0.125000       12.0110           0
      1269 SYS      36       MOL      C9       CG2R61   0.100000E-01   12.0110           0
      1270 SYS      36       MOL      H10      HGR61    0.115000       1.00800           0
      1271 SYS      36       MOL      C11      CG2R61  -0.120000       12.0110           0
      1272 SYS      36       MOL      C12      CG2R61   0.500000E-02   12.0110           0
      1273 SYS      36       MOL      H13      HGR61    0.115000       1.00800           0
      1274 SYS      36       MOL      H14      HGR61    0.115000       1.00800           0
      1275 SYS      36       MOL      C15      CG2R61   0.100000E-01   12.0110           0
      1276 SYS      36       MOL      C16      CG2R61  -0.125000       12.0110           0
      1277 SYS      36       MOL      C17      CG2R61  -0.110000       12.0110           0
      1278 SYS      36       MOL      H18      HGR61    0.115000       1.00800           0
      1279 SYS      36       MOL      C19      CG2R61  -0.120000       12.0110           0
      1280 SYS      36       MOL      C20      CG2R61  -0.125000       12.0110           0
      1281 SYS      36       MOL      C21      CG2R61   0.500000E-02   12.0110           0
      1282 SYS      36       MOL      H22      HGR61    0.115000       1.00800           0
      1283 SYS      36       MOL      C23      CG2R61  -0.110000       12.0110           0
      1284 SYS      36       MOL      H24      HGR61    0.115000       1.00800           0
      1285 SYS      36       MOL      H25      HGR61    0.115000       1.00800           0
      1286 SYS      36       MOL      H26      HGR61    0.115000       1.00800           0
      1287 SYS      36       MOL      C27      CG2R61   0.500000E-02   12.0110           0
      1288 SYS      36       MOL      C28      CG2R61  -0.120000       12.0110           0
      1289 SYS      36       MOL      H29      HGR61    0.115000       1.00800           0
      1290 SYS      36       MOL      C30      CG2R61  -0.120000       12.0110           0
      1291 SYS      36       MOL      C31      CG2R61  -0.110000       12.0110           0
      1292 SYS      36       MOL      H32      HGR61    0.115000       1.00800           0
      1293 SYS      36       MOL      C33      CG2R61  -0.110000       12.0110           0
      1294 SYS      36       MOL      H34      HGR61    0.115000       1.00800           0
      1295 SYS      36       MOL      H35      HGR61    0.115000       1.00800           0
      1296 SYS      36       MOL      H36      HGR61    0.115000       1.00800           0
      1297 SYS      37       MOL      C1       CG2R61   0.100000E-01   12.0110           0
      1298 SYS      37       MOL      C2       CG2R61  -0.125000       12.0110           0
      1299 SYS      37       MOL      C3       CG2R61   0.100000E-01   12.0110           0
      1300 SYS      37       MOL      C4       CG2R61  -0.125000       12.0110           0
      1301 SYS      37       MOL      C5       CG2R61   0.500000E-02   12.0110           0
      1302 SYS      37       MOL      H6       HGR61    0.115000       1.00800           0
      1303 SYS      37       MOL      C7       CG2R61  -0.125000       12.0110           0
      1304 SYS      37       MOL      C8       CG2R61  -0.125000       12.0110           0
      1305 SYS      37       MOL      C9       CG2R61   0.100000E-01   12.0110           0
      1306 SYS      37       MOL      H10      HGR61    0.115000       1.00800           0
      1307 SYS      37       MOL      C11      CG2R61  -0.120000       12.0110           0
      1308 SYS      37       MOL      C12      CG2R61   0.500000E-02   12.0110           0
      1309 SYS      37       MOL      H13      HGR61    0.115000       1.00800           0
      1310 SYS      37       MOL      H14      HGR61    0.115000       1.00800           0
      1311 SYS      37       MOL      C15      CG2R61   0.100000E-01   12.0110           0
      1312 SYS      37       MOL      C16      CG2R61  -0.125000       12.0110           0
      1313 SYS      37       MOL      C17      CG2R61  -0.110000       12.0110           0
      1314 SYS      37       MOL      H18      HGR61    0.115000       1.00800           0
      1315 SYS      37       MOL      C19      CG2R61  -0.120000       12.0110           0
      1316 SYS      37       MOL      C20      CG2R61  -0.125000       12.0110           0
      1317 SYS      37       MOL      C21      CG2R61   0.500000E-02   12.0110           0
      1318 SYS      37       MOL      H22      HGR61    0.115000       1.00800           0
      1319 SYS      37       MOL      C23      CG2R61  -0.110000       12.0110           0
      1320 SYS      37       MOL      H24      HGR61    0.115000       1.00800           0
      1321 SYS      37       MOL      H25      HGR61    0.115000       1.00800           0
      1322 SYS      37       MOL      H26      HGR61    0.115000       1.00800           0
      1323 SYS      37       MOL      C27      CG2R61   0.500000E-02   12.0110           0
      1324 SYS      37       MOL      C28      CG2R61  -0.120000       12.0110           0
      1325 SYS      37       MOL      H29      HGR61    0.115000       1.00800           0
      1326 SYS      37       MOL      C30      CG2R61  -0.120000       12.0110           0
      1327 SYS      37       MOL      C31      CG2R61  -0.110000       12.0110           0
      1328 SYS      37       MOL      H32      HGR61    0.115000       1.00800           0
      1329 SYS      37       MOL      C33      CG2R61  -0.110000       12.0110           0
      1330 SYS      37       MOL      H34      HGR61    0.115000       1.00800           0
      1331 SYS      37       MOL      H35      HGR61    0.115000       1.00800           0
      1332 SYS      37       MOL      H36      HGR61    0.115000       1.00800           0
      1333 SYS      38       MOL      C1       CG2R61   0.100000E-01   12.0110           0
      1334 SYS      38       MOL      C2       CG2R61  -0.125000       12.0110           0
      1335 SYS      38       MOL      C3       CG2R61   0.100000E-01   12.0110           0
      1336 SYS      38       MOL      C4       CG2R61  -0.125000       12.0110           0
      1337 SYS      38       MOL      C5       CG2R61   0.500000E-02   12.0110           0
      1338 SYS      38       MOL      H6       HGR61    0.115000       1.00800           0
      1339 SYS      38       MOL      C7       CG2R61  -0.125000       12.0110           0
      1340 SYS      38       MOL      C8       CG2R61  -0.125000       12.0110           0
      1341 SYS      38       MOL      C9       CG2R61   0.100000E-01   12.0110           0
      1342 SYS      38       MOL      H10      HGR61    0.115000       1.00800           0
      1343 SYS      38       MOL      C11      CG2R61  -0.120000       12.0110           0
      1344 SYS      38       MOL      C12      CG2R61   0.500000E-02   12.0110           0
      1345 SYS      38       MOL      H13      HGR61    0.115000       1.00800           0
      1346 SYS      38       MOL      H14      HGR61    0.115000       1.00800           0
      1347 SYS      38       MOL      C15      CG2R61   0.100000E-01   12.0110           0
      1348 SYS      38       MOL      C16      CG2R61  -0.125000       12.0110           0
      1349 SYS      38       MOL      C17      CG2R61  -0.110000       12.0110           0
      1350 SYS      38       MOL      H18      HGR61    0.115000       1.00800           0
      1351 SYS      38       MOL      C19      CG2R61  -0.120000       12.0110           0
      1352 SYS      38       MOL      C20      CG2R61  -0.125000       12.0110           0
      1353 SYS      38       MOL      C21      CG2R61   0.500000E-02   12.0110           0
      1354 SYS      38       MOL      H22      HGR61    0.115000       1.00800           0
      1355 SYS      38       MOL      C23      CG2R61  -0.110000       12.0110           0
      1356 SYS      38       MOL      H24      HGR61    0.115000       1.00800           0
      1357 SYS      38       MOL      H25      HGR61    0.115000       1.00800           0
      1358 SYS      38       MOL      H26      HGR61    0.115000       1.00800           0
      1359 SYS      38       MOL      C27      CG2R61   0.500000E-02   12.0110           0
      1360 SYS      38       MOL      C28      CG2R61  -0.120000       12.0110           0
      1361 SYS      38       MOL      H29      HGR61    0.115000       1.00800           0
      1362 SYS      38       MOL      C30      CG2R61  -0.120000       12.0110           0
      1363 SYS      38       MOL      C31      CG2R61  -0.110000       12.0110           0
      1364 SYS      38       MOL      H32      HGR61    0.115000       1.00800           0
      1365 SYS      38       MOL      C33      CG2R61  -0.110000       12.0110           0
      1366 SYS      38       MOL      H34      HGR61    0.115000       1.00800           0
      1367 SYS      38       MOL      H35      HGR61    0.115000       1.00800           0
      1368 SYS      38       MOL      H36      HGR61    0.115000       1.00800           0
      1369 SYS      39       MOL      C1       CG2R61   0.100000E-01   12.0110           0
      1370 SYS      39       MOL      C2       CG2R61  -0.125000       12.0110           0
      1371 SYS      39       MOL      C3       CG2R61   0.100000E-01   12.0110           0
      1372 SYS      39       MOL      C4       CG2R61  -0.125000       12.0110           0
      1373 SYS      39       MOL      C5       CG2R61   0.500000E-02   12.0110           0
      1374 SYS      39       MOL      H6       HGR61    0.115000       1.00800           0
      1375 SYS      39       MOL      C7       CG2R61  -0.125000       12.0110           0
      1376 SYS      39       MOL      C8       CG2R61  -0.125000       12.0110           0
      1377 SYS      39       MOL      C9       CG2R61   0.100000E-01   12.0110           0
      1378 SYS      39       MOL      H10      HGR61    0.115000       1.00800           0
      1379 SYS      39       MOL      C11      CG2R61  -0.120000       12.0110           0
      1380 SYS      39       MOL      C12      CG2R61   0.500000E-02   12.0110           0
      1381 SYS      39       MOL      H13      HGR61    0.115000       1.00800           0
      1382 SYS      39       MOL      H14      HGR61    0.115000       1.00800           0
      1383 SYS      39       MOL      C15      CG2R61   0.100000E-01   12.0110           0
      1384 SYS      39       MOL      C16      CG2R61  -0.125000       12.0110           0
      1385 SYS      39       MOL      C17      CG2R61  -0.110000       12.0110           0
      1386 SYS      39       MOL      H18      HGR61    0.115000       1.00800           0
      1387 SYS      39       MOL      C19      CG2R61  -0.120000       12.0110           0
      1388 SYS      39       MOL      C20      CG2R61  -0.125000       12.0110           0
      1389 SYS      39       MOL      C21      CG2R61   0.500000E-02   12.0110           0
      1390 SYS      39       MOL      H22      HGR61    0.115000       1.00800           0
      1391 SYS      39       MOL      C23      CG2R61  -0.110000       12.0110           0
      1392 SYS      39       MOL      H24      HGR61    0.115000       1.00800           0
      1393 SYS      39       MOL      H25      HGR61    0.115000       1.00800           0
      1394 SYS      39       MOL      H26      HGR61    0.115000       1.00800           0
      1395 SYS      39       MOL      C27      CG2R61   0.500000E-02   12.0110           0
      1396 SYS      39       MOL      C28      CG2R61  -0.120000       12.0110           0
      1397 SYS      39       MOL      H29      HGR61    0.115000       1.00800           0
      1398 SYS      39       MOL      C30      CG2R61  -0.120000       12.0110           0
      1399 SYS      39       MOL      C31      CG2R61  -0.110000       12.0110           0
      1400 SYS      39       MOL      H32      HGR61    0.115000       1.00800           0
      1401 SYS      39       MOL      C33      CG2R61  -0.110000       12.0110           0
      1402 SYS      39       MOL      H34      HGR61    0.115000       1.00800           0
      1403 SYS      39       MOL      H35      HGR61    0.115000       1.00800           0
      1404 SYS      39       MOL      H36      HGR61    0.115000       1.00800           0
      1405 SYS      40       MOL      C1       CG2R61   0.100000E-01   12.0110           0
      1406 SYS      40       MOL      C2       CG2R61  -0.125000       12.0110           0
      1407 SYS      40       MOL      C3       CG2R61   0.100000E-01   12.0110           0
      1408 SYS      40       MOL      C4       CG2R61  -0.125000       12.0110           0
      1409 SYS      40       MOL      C5       CG2R61   0.500000E-02   12.0110           0
      1410 SYS      40       MOL      H6       HGR61    0.115000       1.00800           0
      1411 SYS      40       MOL      C7       CG2R61  -0.125000       12.0110           0
      1412 SYS      40       MOL      C8       CG2R61  -0.125000       12.0110           0
      1413 SYS      40       MOL      C9       CG2R61   0.100000E-01   12.0110           0
      1414 SYS      40       MOL      H10      HGR61    0.115000       1.00800           0
      1415 SYS      40       MOL      C11      CG2R61  -0.120000       12.0110           0
      1416 SYS      40       MOL      C12      CG2R61   0.500000E-02   12.0110           0
      1417 SYS      40       MOL      H13      HGR61    0.115000       1.00800           0
      1418 SYS      40       MOL      H14      HGR61    0.115000       1.00800           0
      1419 SYS      40       MOL      C15      CG2R61   0.100000E-01   12.0110           0
      1420 SYS      40       MOL      C16      CG2R61  -0.125000       12.0110           0
      1421 SYS      40       MOL      C17      CG2R61  -0.110000       12.0110           0
      1422 SYS      40       MOL      H18      HGR61    0.115000       1.00800           0
      1423 SYS      40       MOL      C19      CG2R61  -0.120000       12.0110           0
      1424 SYS      40       MOL      C20      CG2R61  -0.125000       12.0110           0
      1425 SYS      40       MOL      C21      CG2R61   0.500000E-02   12.0110           0
      1426 SYS      40       MOL      H22      HGR61    0.115000       1.00800           0
      1427 SYS      40       MOL      C23      CG2R61  -0.110000       12.0110           0
      1428 SYS      40       MOL      H24      HGR61    0.115000       1.00800           0
      1429 SYS      40       MOL      H25      HGR61    0.115000       1.00800           0
      1430 SYS      40       MOL      H26      HGR61    0.115000       1.00800           0
      1431 SYS      40       MOL      C27      CG2R61   0.500000E-02   12.0110           0
      1432 SYS      40       MOL      C28      CG2R61  -0.120000       12.0110           0
      1433 SYS      40       MOL      H29      HGR61    0.115000       1.00800           0
      1434 SYS      40       MOL      C30      CG2R61  -0.120000       12.0110           0
      1435 SYS      40       MOL      C31      CG2R61  -0.110000       12.0110           0
      1436 SYS      40       MOL      H32      HGR61    0.115000       1.00800           0
      1437 SYS      40       MOL      C33      CG2R61  -0.110000       12.0110           0
      1438 SYS      40       MOL      H34      HGR61    0.115000       1.00800           0
      1439 SYS      40       MOL      H35      HGR61    0.115000       1.00800           0
      1440 SYS      40       MOL      H36      HGR61    0.115000       1.00800           0
      1441 SYS      41       MOL      C1       CG2R61   0.100000E-01   12.0110           0
      1442 SYS      41       MOL      C2       CG2R61  -0.125000       12.0110           0
      1443 SYS      41       MOL      C3       CG2R61   0.100000E-01   12.0110           0
      1444 SYS      41       MOL      C4       CG2R61  -0.125000       12.0110           0
      1445 SYS      41       MOL      C5       CG2R61   0.500000E-02   12.0110           0
      1446 SYS      41       MOL      H6       HGR61    0.115000       1.00800           0
      1447 SYS      41       MOL      C7       CG2R61  -0.125000       12.0110           0
      1448 SYS      41       MOL      C8       CG2R61  -0.125000       12.0110           0
      1449 SYS      41       MOL      C9       CG2R61   0.100000E-01   12.0110           0
      1450 SYS      41       MOL      H10      HGR61    0.115000       1.00800           0
      1451 SYS      41       MOL      C11      CG2R61  -0.120000       12.0110           0
      1452 SYS      41       MOL      C12      CG2R61   0.500000E-02   12.0110           0
      1453 SYS      41       MOL      H13      HGR61    0.115000       1.00800           0
      1454 SYS      41       MOL      H14      HGR61    0.115000       1.00800           0
      1455 SYS      41       MOL      C15      CG2R61   0.100000E-01   12.0110           0
      1456 SYS      41       MOL      C16      CG2R61  -0.125000       12.0110           0
      1457 SYS      41       MOL      C17      CG2R61  -0.110000       12.0110           0
      1458 SYS      41       MOL      H18      HGR61    0.115000       1.00800           0
      1459 SYS      41       MOL      C19      CG2R61  -0.120000       12.0110           0
      1460 SYS      41       MOL      C20      CG2R61  -0.125000       12.0110           0
      1461 SYS      41       MOL      C21      CG2R61   0.500000E-02   12.0110           0
      1462 SYS      41       MOL      H22      HGR61    0.115000       1.00800           0
      1463 SYS      41       MOL      C23      CG2R61  -0.110000       12.0110           0
      1464 SYS      41       MOL      H24      HGR61    0.115000       1.00800           0
      1465 SYS      41       MOL      H25      HGR61    0.115000       1.00800           0
      1466 SYS      41       MOL      H26      HGR61    0.115000       1.00800           0
      1467 SYS      41       MOL      C27      CG2R61   0.500000E-02   12.0110           0
      1468 SYS      41       MOL      C28      CG2R61  -0.120000       12.0110           0
      1469 SYS      41       MOL      H29      HGR61    0.115000       1.00800           0
      1470 SYS      41       MOL      C30      CG2R61  -0.120000       12.0110           0
      1471 SYS      41       MOL      C31      CG2R61  -0.110000       12.0110           0
      1472 SYS      41       MOL      H32      HGR61    0.115000       1.00800           0
      1473 SYS      41       MOL      C33      CG2R61  -0.110000       12.0110           0
      1474 SYS      41       MOL      H34      HGR61    0.115000       1.00800           0
      1475 SYS      41       MOL      H35      HGR61    0.115000       1.00800           0
      1476 SYS      41       MOL      H36      HGR61    0.115000       1.00800           0
      1477 SYS      42       MOL      C1       CG2R61   0.100000E-01   12.0110           0
      1478 SYS      42       MOL      C2       CG2R61  -0.125000       12.0110           0
      1479 SYS      42       MOL      C3       CG2R61   0.100000E-01   12.0110           0
      1480 SYS      42       MOL      C4       CG2R61  -0.125000       12.0110           0
      1481 SYS      42       MOL      C5       CG2R61   0.500000E-02   12.0110           0
      1482 SYS      42       MOL      H6       HGR61    0.115000       1.00800           0
      1483 SYS      42       MOL      C7       CG2R61  -0.125000       12.0110           0
      1484 SYS      42       MOL      C8       CG2R61  -0.125000       12.0110           0
      1485 SYS      42       MOL      C9       CG2R61   0.100000E-01   12.0110           0
      1486 SYS      42       MOL      H10      HGR61    0.115000       1.00800           0
      1487 SYS      42       MOL      C11      CG2R61  -0.120000       12.0110           0
      1488 SYS      42       MOL      C12      CG2R61   0.500000E-02   12.0110           0
      1489 SYS      42       MOL      H13      HGR61    0.115000       1.00800           0
      1490 SYS      42       MOL      H14      HGR61    0.115000       1.00800           0
      1491 SYS      42       MOL      C15      CG2R61   0.100000E-01   12.0110           0
      1492 SYS      42       MOL      C16      CG2R61  -0.125000       12.0110           0
      1493 SYS      42       MOL      C17      CG2R61  -0.110000       12.0110           0
      1494 SYS      42       MOL      H18      HGR61    0.115000       1.00800           0
      1495 SYS      42       MOL      C19      CG2R61  -0.120000       12.0110           0
      1496 SYS      42       MOL      C20      CG2R61  -0.125000       12.0110           0
      1497 SYS      42       MOL      C21      CG2R61   0.500000E-02   12.0110           0
      1498 SYS      42       MOL      H22      HGR61    0.115000       1.00800           0
      1499 SYS      42       MOL      C23      CG2R61  -0.110000       12.0110           0
      1500 SYS      42       MOL      H24      HGR61    0.115000       1.00800           0
      1501 SYS      42       MOL      H25      HGR61    0.115000       1.00800           0
      1502 SYS      42       MOL      H26      HGR61    0.115000       1.00800           0
      1503 SYS      42       MOL      C27      CG2R61   0.500000E-02   12.0110           0
      1504 SYS      42       MOL      C28      CG2R61  -0.120000       12.0110           0
      1505 SYS      42       MOL      H29      HGR61    0.115000       1.00800           0
      1506 SYS      42       MOL      C30      CG2R61  -0.120000       12.0110           0
      1507 SYS      42       MOL      C31      CG2R61  -0.110000       12.0110           0
      1508 SYS      42       MOL      H32      HGR61    0.115000       1.00800           0
      1509 SYS      42       MOL      C33      CG2R61  -0.110000       12.0110           0
      1510 SYS      42       MOL      H34      HGR61    0.115000       1.00800           0
      1511 SYS      42       MOL      H35      HGR61    0.115000       1.00800           0
      1512 SYS      42       MOL      H36      HGR61    0.115000       1.00800           0
      1513 SYS      43       MOL      C1       CG2R61   0.100000E-01   12.0110           0
      1514 SYS      43       MOL      C2       CG2R61  -0.125000       12.0110           0
      1515 SYS      43       MOL      C3       CG2R61   0.100000E-01   12.0110           0
      1516 SYS      43       MOL      C4       CG2R61  -0.125000       12.0110           0
      1517 SYS      43       MOL      C5       CG2R61   0.500000E-02   12.0110           0
      1518 SYS      43       MOL      H6       HGR61    0.115000       1.00800           0
      1519 SYS      43       MOL      C7       CG2R61  -0.125000       12.0110           0
      1520 SYS      43       MOL      C8       CG2R61  -0.125000       12.0110           0
      1521 SYS      43       MOL      C9       CG2R61   0.100000E-01   12.0110           0
      1522 SYS      43       MOL      H10      HGR61    0.115000       1.00800           0
      1523 SYS      43       MOL      C11      CG2R61  -0.120000       12.0110           0
      1524 SYS      43       MOL      C12      CG2R61   0.500000E-02   12.0110           0
      1525 SYS      43       MOL      H13      HGR61    0.115000       1.00800           0
      1526 SYS      43       MOL      H14      HGR61    0.115000       1.00800           0
      1527 SYS      43       MOL      C15      CG2R61   0.100000E-01   12.0110           0
      1528 SYS      43       MOL      C16      CG2R61  -0.125000       12.0110           0
      1529 SYS      43       MOL      C17      CG2R61  -0.110000       12.0110           0
      1530 SYS      43       MOL      H18      HGR61    0.115000       1.00800           0
      1531 SYS      43       MOL      C19      CG2R61  -0.120000       12.0110           0
      1532 SYS      43       MOL      C20      CG2R61  -0.125000       12.0110           0
      1533 SYS      43       MOL      C21      CG2R61   0.500000E-02   12.0110           0
      1534 SYS      43       MOL      H22      HGR61    0.115000       1.00800           0
      1535 SYS      43       MOL      C23      CG2R61  -0.110000       12.0110           0
      1536 SYS      43       MOL      H24      HGR61    0.115000       1.00800           0
      1537 SYS      43       MOL      H25      HGR61    0.115000       1.00800           0
      1538 SYS      43       MOL      H26      HGR61    0.115000       1.00800           0
      1539 SYS      43       MOL      C27      CG2R61   0.500000E-02   12.0110           0
      1540 SYS      43       MOL      C28      CG2R61  -0.120000       12.0110           0
      1541 SYS      43       MOL      H29      HGR61    0.115000       1.00800           0
      1542 SYS      43       MOL      C30      CG2R61  -0.120000       12.0110           0
      1543 SYS      43       MOL      C31      CG2R61  -0.110000       12.0110           0
      1544 SYS      43       MOL      H32      HGR61    0.115000       1.00800           0
      1545 SYS      43       MOL      C33      CG2R61  -0.110000       12.0110           0
      1546 SYS      43       MOL      H34      HGR61    0.115000       1.00800           0
      1547 SYS      43       MOL      H35      HGR61    0.115000       1.00800           0
      1548 SYS      43       MOL      H36      HGR61    0.115000       1.00800           0
      1549 SYS      44       MOL      C1       CG2R61   0.100000E-01   12.0110           0
      1550 SYS      44       MOL      C2       CG2R61  -0.125000       12.0110           0
      1551 SYS      44       MOL      C3       CG2R61   0.100000E-01   12.0110           0
      1552 SYS      44       MOL      C4       CG2R61  -0.125000       12.0110           0
      1553 SYS      44       MOL      C5       CG2R61   0.500000E-02   12.0110           0
      1554 SYS      44       MOL      H6       HGR61    0.115000       1.00800           0
      1555 SYS      44       MOL      C7       CG2R61  -0.125000       12.0110           0
      1556 SYS      44       MOL      C8       CG2R61  -0.125000       12.0110           0
      1557 SYS      44       MOL      C9       CG2R61   0.100000E-01   12.0110           0
      1558 SYS      44       MOL      H10      HGR61    0.115000       1.00800           0
      1559 SYS      44       MOL      C11      CG2R61  -0.120000       12.0110           0
      1560 SYS      44       MOL      C12      CG2R61   0.500000E-02   12.0110           0
      1561 SYS      44       MOL      H13      HGR61    0.115000       1.00800           0
      1562 SYS      44       MOL      H14      HGR61    0.115000       1.00800           0
      1563 SYS      44       MOL      C15      CG2R61   0.100000E-01   12.0110           0
      1564 SYS      44       MOL      C16      CG2R61  -0.125000       12.0110           0
      1565 SYS      44       MOL      C17      CG2R61  -0.110000       12.0110           0
      1566 SYS      44       MOL      H18      HGR61    0.115000       1.00800           0
      1567 SYS      44       MOL      C19      CG2R61  -0.120000       12.0110           0
      1568 SYS      44       MOL      C20      CG2R61  -0.125000       12.0110           0
      1569 SYS      44       MOL      C21      CG2R61   0.500000E-02   12.0110           0
      1570 SYS      44       MOL      H22      HGR61    0.115000       1.00800           0
      1571 SYS      44       MOL      C23      CG2R61  -0.110000       12.0110           0
      1572 SYS      44       MOL      H24      HGR61    0.115000       1.00800           0
      1573 SYS      44       MOL      H25      HGR61    0.115000       1.00800           0
      1574 SYS      44       MOL      H26      HGR61    0.115000       1.00800           0
      1575 SYS      44       MOL      C27      CG2R61   0.500000E-02   12.0110           0
      1576 SYS      44       MOL      C28      CG2R61  -0.120000       12.0110           0
      1577 SYS      44       MOL      H29      HGR61    0.115000       1.00800           0
      1578 SYS      44       MOL      C30      CG2R61  -0.120000       12.0110           0
      1579 SYS      44       MOL      C31      CG2R61  -0.110000       12.0110           0
      1580 SYS      44       MOL      H32      HGR61    0.115000       1.00800           0
      1581 SYS      44       MOL      C33      CG2R61  -0.110000       12.0110           0
      1582 SYS      44       MOL      H34      HGR61    0.115000       1.00800           0
      1583 SYS      44       MOL      H35      HGR61    0.115000       1.00800           0
      1584 SYS      44       MOL      H36      HGR61    0.115000       1.00800           0
      1585 SYS      45       MOL      C1       CG2R61   0.100000E-01   12.0110           0
      1586 SYS      45       MOL      C2       CG2R61  -0.125000       12.0110           0
      1587 SYS      45       MOL      C3       CG2R61   0.100000E-01   12.0110           0
      1588 SYS      45       MOL      C4       CG2R61  -0.125000       12.0110           0
      1589 SYS      45       MOL      C5       CG2R61   0.500000E-02   12.0110           0
      1590 SYS      45       MOL      H6       HGR61    0.115000       1.00800           0
      1591 SYS      45       MOL      C7       CG2R61  -0.125000       12.0110           0
      1592 SYS      45       MOL      C8       CG2R61  -0.125000       12.0110           0
      1593 SYS      45       MOL      C9       CG2R61   0.100000E-01   12.0110           0
      1594 SYS      45       MOL      H10      HGR61    0.115000       1.00800           0
      1595 SYS      45       MOL      C11      CG2R61  -0.120000       12.0110           0
      1596 SYS      45       MOL      C12      CG2R61   0.500000E-02   12.0110           0
      1597 SYS      45       MOL      H13      HGR61    0.115000       1.00800           0
      1598 SYS      45       MOL      H14      HGR61    0.115000       1.00800           0
      1599 SYS      45       MOL      C15      CG2R61   0.100000E-01   12.0110           0
      1600 SYS      45       MOL      C16      CG2R61  -0.125000       12.0110           0
      1601 SYS      45       MOL      C17      CG2R61  -0.110000       12.0110           0
      1602 SYS      45       MOL      H18      HGR61    0.115000       1.00800           0
      1603 SYS      45       MOL      C19      CG2R61  -0.120000       12.0110           0
      1604 SYS      45       MOL      C20      CG2R61  -0.125000       12.0110           0
      1605 SYS      45       MOL      C21      CG2R61   0.500000E-02   12.0110           0
      1606 SYS      45       MOL      H22      HGR61    0.115000       1.00800           0
      1607 SYS      45       MOL      C23      CG2R61  -0.110000       12.0110           0
      1608 SYS      45       MOL      H24      HGR61    0.115000       1.00800           0
      1609 SYS      45       MOL      H25      HGR61    0.115000       1.00800           0
      1610 SYS      45       MOL      H26      HGR61    0.115000       1.00800           0
      1611 SYS      45       MOL      C27      CG2R61   0.500000E-02   12.0110           0
      1612 SYS      45       MOL      C28      CG2R61  -0.120000       12.0110           0
      1613 SYS      45       MOL      H29      HGR61    0.115000       1.00800           0
      1614 SYS      45       MOL      C30      CG2R61  -0.120000       12.0110           0
      1615 SYS      45       MOL      C31      CG2R61  -0.110000       12.0110           0
      1616 SYS      45       MOL      H32      HGR61    0.115000       1.00800           0
      1617 SYS      45       MOL      C33      CG2R61  -0.110000       12.0110           0
      1618 SYS      45       MOL      H34      HGR61    0.115000       1.00800           0
      1619 SYS      45       MOL      H35      HGR61    0.115000       1.00800           0
      1620 SYS      45       MOL      H36      HGR61    0.115000       1.00800           0
      1621 SYS      46       MOL      C1       CG2R61   0.100000E-01   12.0110           0
      1622 SYS      46       MOL      C2       CG2R61  -0.125000       12.0110           0
      1623 SYS      46       MOL      C3       CG2R61   0.100000E-01   12.0110           0
      1624 SYS      46       MOL      C4       CG2R61  -0.125000       12.0110           0
      1625 SYS      46       MOL      C5       CG2R61   0.500000E-02   12.0110           0
      1626 SYS      46       MOL      H6       HGR61    0.115000       1.00800           0
      1627 SYS      46       MOL      C7       CG2R61  -0.125000       12.0110           0
      1628 SYS      46       MOL      C8       CG2R61  -0.125000       12.0110           0
      1629 SYS      46       MOL      C9       CG2R61   0.100000E-01   12.0110           0
      1630 SYS      46       MOL      H10      HGR61    0.115000       1.00800           0
      1631 SYS      46       MOL      C11      CG2R61  -0.120000       12.0110           0
      1632 SYS      46       MOL      C12      CG2R61   0.500000E-02   12.0110           0
      1633 SYS      46       MOL      H13      HGR61    0.115000       1.00800           0
      1634 SYS      46       MOL      H14      HGR61    0.115000       1.00800           0
      1635 SYS      46       MOL      C15      CG2R61   0.100000E-01   12.0110           0
      1636 SYS      46       MOL      C16      CG2R61  -0.125000       12.0110           0
      1637 SYS      46       MOL      C17      CG2R61  -0.110000       12.0110           0
      1638 SYS      46       MOL      H18      HGR61    0.115000       1.00800           0
      1639 SYS      46       MOL      C19      CG2R61  -0.120000       12.0110           0
      1640 SYS      46       MOL      C20      CG2R61  -0.125000       12.0110           0
      1641 SYS      46       MOL      C21      CG2R61   0.500000E-02   12.0110           0
      1642 SYS      46       MOL      H22      HGR61    0.115000       1.00800           0
      1643 SYS      46       MOL      C23      CG2R61  -0.110000       12.0110           0
      1644 SYS      46       MOL      H24      HGR61    0.115000       1.00800           0
      1645 SYS      46       MOL      H25      HGR61    0.115000       1.00800           0
      1646 SYS      46       MOL      H26      HGR61    0.115000       1.00800           0
      1647 SYS      46       MOL      C27      CG2R61   0.500000E-02   12.0110           0
      1648 SYS      46       MOL      C28      CG2R61  -0.120000       12.0110           0
      1649 SYS      46       MOL      H29      HGR61    0.115000       1.00800           0
      1650 SYS      46       MOL      C30      CG2R61  -0.120000       12.0110           0
      1651 SYS      46       MOL      C31      CG2R61  -0.110000       12.0110           0
      1652 SYS      46       MOL      H32      HGR61    0.115000       1.00800           0
      1653 SYS      46       MOL      C33      CG2R61  -0.110000       12.0110           0
      1654 SYS      46       MOL      H34      HGR61    0.115000       1.00800           0
      1655 SYS      46       MOL      H35      HGR61    0.115000       1.00800           0
      1656 SYS      46       MOL      H36      HGR61    0.115000       1.00800           0
      1657 SYS      47       MOL      C1       CG2R61   0.100000E-01   12.0110           0
      1658 SYS      47       MOL      C2       CG2R61  -0.125000       12.0110           0
      1659 SYS      47       MOL      C3       CG2R61   0.100000E-01   12.0110           0
      1660 SYS      47       MOL      C4       CG2R61  -0.125000       12.0110           0
      1661 SYS      47       MOL      C5       CG2R61   0.500000E-02   12.0110           0
      1662 SYS      47       MOL      H6       HGR61    0.115000       1.00800           0
      1663 SYS      47       MOL      C7       CG2R61  -0.125000       12.0110           0
      1664 SYS      47       MOL      C8       CG2R61  -0.125000       12.0110           0
      1665 SYS      47       MOL      C9       CG2R61   0.100000E-01   12.0110           0
      1666 SYS      47       MOL      H10      HGR61    0.115000       1.00800           0
      1667 SYS      47       MOL      C11      CG2R61  -0.120000       12.0110           0
      1668 SYS      47       MOL      C12      CG2R61   0.500000E-02   12.0110           0
      1669 SYS      47       MOL      H13      HGR61    0.115000       1.00800           0
      1670 SYS      47       MOL      H14      HGR61    0.115000       1.00800           0
      1671 SYS      47       MOL      C15      CG2R61   0.100000E-01   12.0110           0
      1672 SYS      47       MOL      C16      CG2R61  -0.125000       12.0110           0
      1673 SYS      47       MOL      C17      CG2R61  -0.110000       12.0110           0
      1674 SYS      47       MOL      H18      HGR61    0.115000       1.00800           0
      1675 SYS      47       MOL      C19      CG2R61  -0.120000       12.0110           0
      1676 SYS      47       MOL      C20      CG2R61  -0.125000       12.0110           0
      1677 SYS      47       MOL      C21      CG2R61   0.500000E-02   12.0110           0
      1678 SYS      47       MOL      H22      HGR61    0.115000       1.00800           0
      1679 SYS      47       MOL      C23      CG2R61  -0.110000       12.0110           0
      1680 SYS      47       MOL      H24      HGR61    0.115000       1.00800           0
      1681 SYS      47       MOL      H25      HGR61    0.115000       1.00800           0
      1682 SYS      47       MOL      H26      HGR61    0.115000       1.00800           0
      1683 SYS      47       MOL      C27      CG2R61   0.500000E-02   12.0110           0
      1684 SYS      47       MOL      C28      CG2R61  -0.120000       12.0110           0
      1685 SYS      47       MOL      H29      HGR61    0.115000       1.00800           0
      1686 SYS      47       MOL      C30      CG2R61  -0.120000       12.0110           0
      1687 SYS      47       MOL      C31      CG2R61  -0.110000       12.0110           0
      1688 SYS      47       MOL      H32      HGR61    0.115000       1.00800           0
      1689 SYS      47       MOL      C33      CG2R61  -0.110000       12.0110           0
      1690 SYS      47       MOL      H34      HGR61    0.115000       1.00800           0
      1691 SYS      47       MOL      H35      HGR61    0.115000       1.00800           0
      1692 SYS      47       MOL      H36      HGR61    0.115000       1.00800           0
      1693 SYS      48       MOL      C1       CG2R61   0.100000E-01   12.0110           0
      1694 SYS      48       MOL      C2       CG2R61  -0.125000       12.0110           0
      1695 SYS      48       MOL      C3       CG2R61   0.100000E-01   12.0110           0
      1696 SYS      48       MOL      C4       CG2R61  -0.125000       12.0110           0
      1697 SYS      48       MOL      C5       CG2R61   0.500000E-02   12.0110           0
      1698 SYS      48       MOL      H6       HGR61    0.115000       1.00800           0
      1699 SYS      48       MOL      C7       CG2R61  -0.125000       12.0110           0
      1700 SYS      48       MOL      C8       CG2R61  -0.125000       12.0110           0
      1701 SYS      48       MOL      C9       CG2R61   0.100000E-01   12.0110           0
      1702 SYS      48       MOL      H10      HGR61    0.115000       1.00800           0
      1703 SYS      48       MOL      C11      CG2R61  -0.120000       12.0110           0
      1704 SYS      48       MOL      C12      CG2R61   0.500000E-02   12.0110           0
      1705 SYS      48       MOL      H13      HGR61    0.115000       1.00800           0
      1706 SYS      48       MOL      H14      HGR61    0.115000       1.00800           0
      1707 SYS      48       MOL      C15      CG2R61   0.100000E-01   12.0110           0
      1708 SYS      48       MOL      C16      CG2R61  -0.125000       12.0110           0
      1709 SYS      48       MOL      C17      CG2R61  -0.110000       12.0110           0
      1710 SYS      48       MOL      H18      HGR61    0.115000       1.00800           0
      1711 SYS      48       MOL      C19      CG2R61  -0.120000       12.0110           0
      1712 SYS      48       MOL      C20      CG2R61  -0.125000       12.0110           0
      1713 SYS      48       MOL      C21      CG2R61   0.500000E-02   12.0110           0
      1714 SYS      48       MOL      H22      HGR61    0.115000       1.00800           0
      1715 SYS      48       MOL      C23      CG2R61  -0.110000       12.0110           0
      1716 SYS      48       MOL      H24      HGR61    0.115000       1.00800           0
      1717 SYS      48       MOL      H25      HGR61    0.115000       1.00800           0
      1718 SYS      48       MOL      H26      HGR61    0.115000       1.00800           0
      1719 SYS      48       MOL      C27      CG2R61   0.500000E-02   12.0110           0
      1720 SYS      48       MOL      C28      CG2R61  -0.120000       12.0110           0
      1721 SYS      48       MOL      H29      HGR61    0.115000       1.00800           0
      1722 SYS      48       MOL      C30      CG2R61  -0.120000       12.0110           0
      1723 SYS      48       MOL      C31      CG2R61  -0.110000       12.0110           0
      1724 SYS      48       MOL      H32      HGR61    0.115000       1.00800           0
      1725 SYS      48       MOL      C33      CG2R61  -0.110000       12.0110           0
      1726 SYS      48       MOL      H34      HGR61    0.115000       1.00800           0
      1727 SYS      48       MOL      H35      HGR61    0.115000       1.00800           0
      1728 SYS      48       MOL      H36      HGR61    0.115000       1.00800           0
      1729 SYS      49       MOL      C1       CG2R61   0.100000E-01   12.0110           0
      1730 SYS      49       MOL      C2       CG2R61  -0.125000       12.0110           0
      1731 SYS      49       MOL      C3       CG2R61   0.100000E-01   12.0110           0
      1732 SYS      49       MOL      C4       CG2R61  -0.125000       12.0110           0
      1733 SYS      49       MOL      C5       CG2R61   0.500000E-02   12.0110           0
      1734 SYS      49       MOL      H6       HGR61    0.115000       1.00800           0
      1735 SYS      49       MOL      C7       CG2R61  -0.125000       12.0110           0
      1736 SYS      49       MOL      C8       CG2R61  -0.125000       12.0110           0
      1737 SYS      49       MOL      C9       CG2R61   0.100000E-01   12.0110           0
      1738 SYS      49       MOL      H10      HGR61    0.115000       1.00800           0
      1739 SYS      49       MOL      C11      CG2R61  -0.120000       12.0110           0
      1740 SYS      49       MOL      C12      CG2R61   0.500000E-02   12.0110           0
      1741 SYS      49       MOL      H13      HGR61    0.115000       1.00800           0
      1742 SYS      49       MOL      H14      HGR61    0.115000       1.00800           0
      1743 SYS      49       MOL      C15      CG2R61   0.100000E-01   12.0110           0
      1744 SYS      49       MOL      C16      CG2R61  -0.125000       12.0110           0
      1745 SYS      49       MOL      C17      CG2R61  -0.110000       12.0110           0
      1746 SYS      49       MOL      H18      HGR61    0.115000       1.00800           0
      1747 SYS      49       MOL      C19      CG2R61  -0.120000       12.0110           0
      1748 SYS      49       MOL      C20      CG2R61  -0.125000       12.0110           0
      1749 SYS      49       MOL      C21      CG2R61   0.500000E-02   12.0110           0
      1750 SYS      49       MOL      H22      HGR61    0.115000       1.00800           0
      1751 SYS      49       MOL      C23      CG2R61  -0.110000       12.0110           0
      1752 SYS      49       MOL      H24      HGR61    0.115000       1.00800           0
      1753 SYS      49       MOL      H25      HGR61    0.115000       1.00800           0
      1754 SYS      49       MOL      H26      HGR61    0.115000       1.00800           0
      1755 SYS      49       MOL      C27      CG2R61   0.500000E-02   12.0110           0
      1756 SYS      49       MOL      C28      CG2R61  -0.120000       12.0110           0
      1757 SYS      49       MOL      H29      HGR61    0.115000       1.00800           0
      1758 SYS      49       MOL      C30      CG2R61  -0.120000       12.0110           0
      1759 SYS      49       MOL      C31      CG2R61  -0.110000       12.0110           0
      1760 SYS      49       MOL      H32      HGR61    0.115000       1.00800           0
      1761 SYS      49       MOL      C33      CG2R61  -0.110000       12.0110           0
      1762 SYS      49       MOL      H34      HGR61    0.115000       1.00800           0
      1763 SYS      49       MOL      H35      HGR61    0.115000       1.00800           0
      1764 SYS      49       MOL      H36      HGR61    0.115000       1.00800           0
      1765 SYS      50       MOL      C1       CG2R61   0.100000E-01   12.0110           0
      1766 SYS      50       MOL      C2       CG2R61  -0.125000       12.0110           0
      1767 SYS      50       MOL      C3       CG2R61   0.100000E-01   12.0110           0
      1768 SYS      50       MOL      C4       CG2R61  -0.125000       12.0110           0
      1769 SYS      50       MOL      C5       CG2R61   0.500000E-02   12.0110           0
      1770 SYS      50       MOL      H6       HGR61    0.115000       1.00800           0
      1771 SYS      50       MOL      C7       CG2R61  -0.125000       12.0110           0
      1772 SYS      50       MOL      C8       CG2R61  -0.125000       12.0110           0
      1773 SYS      50       MOL      C9       CG2R61   0.100000E-01   12.0110           0
      1774 SYS      50       MOL      H10      HGR61    0.115000       1.00800           0
      1775 SYS      50       MOL      C11      CG2R61  -0.120000       12.0110           0
      1776 SYS      50       MOL      C12      CG2R61   0.500000E-02   12.0110           0
      1777 SYS      50       MOL      H13      HGR61    0.115000       1.00800           0
      1778 SYS      50       MOL      H14      HGR61    0.115000       1.00800           0
      1779 SYS      50       MOL      C15      CG2R61   0.100000E-01   12.0110           0
      1780 SYS      50       MOL      C16      CG2R61  -0.125000       12.0110           0
      1781 SYS      50       MOL      C17      CG2R61  -0.110000       12.0110           0
      1782 SYS      50       MOL      H18      HGR61    0.115000       1.00800           0
      1783 SYS      50       MOL      C19      CG2R61  -0.120000       12.0110           0
      1784 SYS      50       MOL      C20      CG2R61  -0.125000       12.0110           0
      1785 SYS      50       MOL      C21      CG2R61   0.500000E-02   12.0110           0
      1786 SYS      50       MOL      H22      HGR61    0.115000       1.00800           0
      1787 SYS      50       MOL      C23      CG2R61  -0.110000       12.0110           0
      1788 SYS      50       MOL      H24      HGR61    0.115000       1.00800           0
      1789 SYS      50       MOL      H25      HGR61    0.115000       1.00800           0
      1790 SYS      50       MOL      H26      HGR61    0.115000       1.00800           0
      1791 SYS      50       MOL      C27      CG2R61   0.500000E-02   12.0110           0
      1792 SYS      50       MOL      C28      CG2R61  -0.120000       12.0110           0
      1793 SYS      50       MOL      H29      HGR61    0.115000       1.00800           0
      1794 SYS      50       MOL      C30      CG2R61  -0.120000       12.0110           0
      1795 SYS      50       MOL      C31      CG2R61  -0.110000       12.0110           0
      1796 SYS      50       MOL      H32      HGR61    0.115000       1.00800           0
      1797 SYS      50       MOL      C33      CG2R61  -0.110000       12.0110           0
      1798 SYS      50       MOL      H34      HGR61    0.115000       1.00800           0
      1799 SYS      50       MOL      H35      HGR61    0.115000       1.00800           0
      1800 SYS      50       MOL      H36      HGR61    0.115000       1.00800           0
      1801 SYS      51       MOL      C1       CG2R61   0.100000E-01   12.0110           0
      1802 SYS      51       MOL      C2       CG2R61  -0.125000       12.0110           0
      1803 SYS      51       MOL      C3       CG2R61   0.100000E-01   12.0110           0
      1804 SYS      51       MOL      C4       CG2R61  -0.125000       12.0110           0
      1805 SYS      51       MOL      C5       CG2R61   0.500000E-02   12.0110           0
      1806 SYS      51       MOL      H6       HGR61    0.115000       1.00800           0
      1807 SYS      51       MOL      C7       CG2R61  -0.125000       12.0110           0
      1808 SYS      51       MOL      C8       CG2R61  -0.125000       12.0110           0
      1809 SYS      51       MOL      C9       CG2R61   0.100000E-01   12.0110           0
      1810 SYS      51       MOL      H10      HGR61    0.115000       1.00800           0
      1811 SYS      51       MOL      C11      CG2R61  -0.120000       12.0110           0
      1812 SYS      51       MOL      C12      CG2R61   0.500000E-02   12.0110           0
      1813 SYS      51       MOL      H13      HGR61    0.115000       1.00800           0
      1814 SYS      51       MOL      H14      HGR61    0.115000       1.00800           0
      1815 SYS      51       MOL      C15      CG2R61   0.100000E-01   12.0110           0
      1816 SYS      51       MOL      C16      CG2R61  -0.125000       12.0110           0
      1817 SYS      51       MOL      C17      CG2R61  -0.110000       12.0110           0
      1818 SYS      51       MOL      H18      HGR61    0.115000       1.00800           0
      1819 SYS      51       MOL      C19      CG2R61  -0.120000       12.0110           0
      1820 SYS      51       MOL      C20      CG2R61  -0.125000       12.0110           0
      1821 SYS      51       MOL      C21      CG2R61   0.500000E-02   12.0110           0
      1822 SYS      51       MOL      H22      HGR61    0.115000       1.00800           0
      1823 SYS      51       MOL      C23      CG2R61  -0.110000       12.0110           0
      1824 SYS      51       MOL      H24      HGR61    0.115000       1.00800           0
      1825 SYS      51       MOL      H25      HGR61    0.115000       1.00800           0
      1826 SYS      51       MOL      H26      HGR61    0.115000       1.00800           0
      1827 SYS      51       MOL      C27      CG2R61   0.500000E-02   12.0110           0
      1828 SYS      51       MOL      C28      CG2R61  -0.120000       12.0110           0
      1829 SYS      51       MOL      H29      HGR61    0.115000       1.00800           0
      1830 SYS      51       MOL      C30      CG2R61  -0.120000       12.0110           0
      1831 SYS      51       MOL      C31      CG2R61  -0.110000       12.0110           0
      1832 SYS      51       MOL      H32      HGR61    0.115000       1.00800           0
      1833 SYS      51       MOL      C33      CG2R61  -0.110000       12.0110           0
      1834 SYS      51       MOL      H34      HGR61    0.115000       1.00800           0
      1835 SYS      51       MOL      H35      HGR61    0.115000       1.00800           0
      1836 SYS      51       MOL      H36      HGR61    0.115000       1.00800           0
      1837 SYS      52       MOL      C1       CG2R61   0.100000E-01   12.0110           0
      1838 SYS      52       MOL      C2       CG2R61  -0.125000       12.0110           0
      1839 SYS      52       MOL      C3       CG2R61   0.100000E-01   12.0110           0
      1840 SYS      52       MOL      C4       CG2R61  -0.125000       12.0110           0
      1841 SYS      52       MOL      C5       CG2R61   0.500000E-02   12.0110           0
      1842 SYS      52       MOL      H6       HGR61    0.115000       1.00800           0
      1843 SYS      52       MOL      C7       CG2R61  -0.125000       12.0110           0
      1844 SYS      52       MOL      C8       CG2R61  -0.125000       12.0110           0
      1845 SYS      52       MOL      C9       CG2R61   0.100000E-01   12.0110           0
      1846 SYS      52       MOL      H10      HGR61    0.115000       1.00800           0
      1847 SYS      52       MOL      C11      CG2R61  -0.120000       12.0110           0
      1848 SYS      52       MOL      C12      CG2R61   0.500000E-02   12.0110           0
      1849 SYS      52       MOL      H13      HGR61    0.115000       1.00800           0
      1850 SYS      52       MOL      H14      HGR61    0.115000       1.00800           0
      1851 SYS      52       MOL      C15      CG2R61   0.100000E-01   12.0110           0
      1852 SYS      52       MOL      C16      CG2R61  -0.125000       12.0110           0
      1853 SYS      52       MOL      C17      CG2R61  -0.110000       12.0110           0
      1854 SYS      52       MOL      H18      HGR61    0.115000       1.00800           0
      1855 SYS      52       MOL      C19      CG2R61  -0.120000       12.0110           0
      1856 SYS      52       MOL      C20      CG2R61  -0.125000       12.0110           0
      1857 SYS      52       MOL      C21      CG2R61   0.500000E-02   12.0110           0
      1858 SYS      52       MOL      H22      HGR61    0.115000       1.00800           0
      1859 SYS      52       MOL      C23      CG2R61  -0.110000       12.0110           0
      1860 SYS      52       MOL      H24      HGR61    0.115000       1.00800           0
      1861 SYS      52       MOL      H25      HGR61    0.115000       1.00800           0
      1862 SYS      52       MOL      H26      HGR61    0.115000       1.00800           0
      1863 SYS      52       MOL      C27      CG2R61   0.500000E-02   12.0110           0
      1864 SYS      52       MOL      C28      CG2R61  -0.120000       12.0110           0
      1865 SYS      52       MOL      H29      HGR61    0.115000       1.00800           0
      1866 SYS      52       MOL      C30      CG2R61  -0.120000       12.0110           0
      1867 SYS      52       MOL      C31      CG2R61  -0.110000       12.0110           0
      1868 SYS      52       MOL      H32      HGR61    0.115000       1.00800           0
      1869 SYS      52       MOL      C33      CG2R61  -0.110000       12.0110           0
      1870 SYS      52       MOL      H34      HGR61    0.115000       1.00800           0
      1871 SYS      52       MOL      H35      HGR61    0.115000       1.00800           0
      1872 SYS      52       MOL      H36      HGR61    0.115000       1.00800           0
      1873 SYS      53       MOL      C1       CG2R61   0.100000E-01   12.0110           0
      1874 SYS      53       MOL      C2       CG2R61  -0.125000       12.0110           0
      1875 SYS      53       MOL      C3       CG2R61   0.100000E-01   12.0110           0
      1876 SYS      53       MOL      C4       CG2R61  -0.125000       12.0110           0
      1877 SYS      53       MOL      C5       CG2R61   0.500000E-02   12.0110           0
      1878 SYS      53       MOL      H6       HGR61    0.115000       1.00800           0
      1879 SYS      53       MOL      C7       CG2R61  -0.125000       12.0110           0
      1880 SYS      53       MOL      C8       CG2R61  -0.125000       12.0110           0
      1881 SYS      53       MOL      C9       CG2R61   0.100000E-01   12.0110           0
      1882 SYS      53       MOL      H10      HGR61    0.115000       1.00800           0
      1883 SYS      53       MOL      C11      CG2R61  -0.120000       12.0110           0
      1884 SYS      53       MOL      C12      CG2R61   0.500000E-02   12.0110           0
      1885 SYS      53       MOL      H13      HGR61    0.115000       1.00800           0
      1886 SYS      53       MOL      H14      HGR61    0.115000       1.00800           0
      1887 SYS      53       MOL      C15      CG2R61   0.100000E-01   12.0110           0
      1888 SYS      53       MOL      C16      CG2R61  -0.125000       12.0110           0
      1889 SYS      53       MOL      C17      CG2R61  -0.110000       12.0110           0
      1890 SYS      53       MOL      H18      HGR61    0.115000       1.00800           0
      1891 SYS      53       MOL      C19      CG2R61  -0.120000       12.0110           0
      1892 SYS      53       MOL      C20      CG2R61  -0.125000       12.0110           0
      1893 SYS      53       MOL      C21      CG2R61   0.500000E-02   12.0110           0
      1894 SYS      53       MOL      H22      HGR61    0.115000       1.00800           0
      1895 SYS      53       MOL      C23      CG2R61  -0.110000       12.0110           0
      1896 SYS      53       MOL      H24      HGR61    0.115000       1.00800           0
      1897 SYS      53       MOL      H25      HGR61    0.115000       1.00800           0
      1898 SYS      53       MOL      H26      HGR61    0.115000       1.00800           0
      1899 SYS      53       MOL      C27      CG2R61   0.500000E-02   12.0110           0
      1900 SYS      53       MOL      C28      CG2R61  -0.120000       12.0110           0
      1901 SYS      53       MOL      H29      HGR61    0.115000       1.00800           0
      1902 SYS      53       MOL      C30      CG2R61  -0.120000       12.0110           0
      1903 SYS      53       MOL      C31      CG2R61  -0.110000       12.0110           0
      1904 SYS      53       MOL      H32      HGR61    0.115000       1.00800           0
      1905 SYS      53       MOL      C33      CG2R61  -0.110000       12.0110           0
      1906 SYS      53       MOL      H34      HGR61    0.115000       1.00800           0
      1907 SYS      53       MOL      H35      HGR61    0.115000       1.00800           0
      1908 SYS      53       MOL      H36      HGR61    0.115000       1.00800           0
      1909 SYS      54       MOL      C1       CG2R61   0.100000E-01   12.0110           0
      1910 SYS      54       MOL      C2       CG2R61  -0.125000       12.0110           0
      1911 SYS      54       MOL      C3       CG2R61   0.100000E-01   12.0110           0
      1912 SYS      54       MOL      C4       CG2R61  -0.125000       12.0110           0
      1913 SYS      54       MOL      C5       CG2R61   0.500000E-02   12.0110           0
      1914 SYS      54       MOL      H6       HGR61    0.115000       1.00800           0
      1915 SYS      54       MOL      C7       CG2R61  -0.125000       12.0110           0
      1916 SYS      54       MOL      C8       CG2R61  -0.125000       12.0110           0
      1917 SYS      54       MOL      C9       CG2R61   0.100000E-01   12.0110           0
      1918 SYS      54       MOL      H10      HGR61    0.115000       1.00800           0
      1919 SYS      54       MOL      C11      CG2R61  -0.120000       12.0110           0
      1920 SYS      54       MOL      C12      CG2R61   0.500000E-02   12.0110           0
      1921 SYS      54       MOL      H13      HGR61    0.115000       1.00800           0
      1922 SYS      54       MOL      H14      HGR61    0.115000       1.00800           0
      1923 SYS      54       MOL      C15      CG2R61   0.100000E-01   12.0110           0
      1924 SYS      54       MOL      C16      CG2R61  -0.125000       12.0110           0
      1925 SYS      54       MOL      C17      CG2R61  -0.110000       12.0110           0
      1926 SYS      54       MOL      H18      HGR61    0.115000       1.00800           0
      1927 SYS      54       MOL      C19      CG2R61  -0.120000       12.0110           0
      1928 SYS      54       MOL      C20      CG2R61  -0.125000       12.0110           0
      1929 SYS      54       MOL      C21      CG2R61   0.500000E-02   12.0110           0
      1930 SYS      54       MOL      H22      HGR61    0.115000       1.00800           0
      1931 SYS      54       MOL      C23      CG2R61  -0.110000       12.0110           0
      1932 SYS      54       MOL      H24      HGR61    0.115000       1.00800           0
      1933 SYS      54       MOL      H25      HGR61    0.115000       1.00800           0
      1934 SYS      54       MOL      H26      HGR61    0.115000       1.00800           0
      1935 SYS      54       MOL      C27      CG2R61   0.500000E-02   12.0110           0
      1936 SYS      54       MOL      C28      CG2R61  -0.120000       12.0110           0
      1937 SYS      54       MOL      H29      HGR61    0.115000       1.00800           0
      1938 SYS      54       MOL      C30      CG2R61  -0.120000       12.0110           0
      1939 SYS      54       MOL      C31      CG2R61  -0.110000       12.0110           0
      1940 SYS      54       MOL      H32      HGR61    0.115000       1.00800           0
      1941 SYS      54       MOL      C33      CG2R61  -0.110000       12.0110           0
      1942 SYS      54       MOL      H34      HGR61    0.115000       1.00800           0
      1943 SYS      54       MOL      H35      HGR61    0.115000       1.00800           0
      1944 SYS      54       MOL      H36      HGR61    0.115000       1.00800           0

      2160 !NBOND: bonds
         1         2         1         3         1         4         2         5
         2         6         3         7         3         8         4         9
         4        10         5        11         5        12         7        12
         7        13         8        14         8        15         9        15
         9        16        11        17        11        18        12        19
        15        20        16        21        16        22        17        23
        17        24        19        23        19        25        20        26
        20        27        21        27        21        28        23        29
        27        30        28        31        28        32        30        33
        30        34        31        33        31        35        33        36
        37        38        37        39        37        40        38        41
        38        42        39        43        39        44        40        45
        40        46        41        47        41        48        43        48
        43        49        44        50        44        51        45        51
        45        52        47        53        47        54        48        55
        51        56        52        57        52        58        53        59
        53        60        55        59        55        61        56        62
        56        63        57        63        57        64        59        65
        63        66        64        67        64        68        66        69
        66        70        67        69        67        71        69        72
        73        74        73        75        73        76        74        77
        74        78        75        79        75        80        76        81
        76        82        77        83        77        84        79        84
        79        85        80        86        80        87        81        87
        81        88        83        89        83        90        84        91
        87        92        88        93        88        94        89        95
        89        96        91        95        91        97        92        98
        92        99        93        99        93       100        95       101
        99       102       100       103       100       104       102       105
       102       106       103       105       103       107       105       108
       109       110       109       111       109       112       110       113
       110       114       111       115       111       116       112       117
       112       118       113       119       113       120       115       120
       115       121       116       122       116       123       117       123
       117       124       119       125       119       126       120       127
       123       128       124       129       124       130       125       131
       125       132       127       131       127       133       128       134
       128       135       129       135       129       136       131       137
       135       138       136       139       136       140       138       141
       138       142       139       141       139       143       141       144
       145       146       145       147       145       148       146       149
       146       150       147       151       147       152       148       153
       148       154       149       155       149       156       151       156
       151       157       152       158       152       159       153       159
       153       160       155       161       155       162       156       163
       159       164       160       165       160       166       161       167
       161       168       163       167       163       169       164       170
       164       171       165       171       165       172       167       173
       171       174       172       175       172       176       174       177
       174       178       175       177       175       179       177       180
       181       182       181       183       181       184       182       185
       182       186       183       187       183       188       184       189
       184       190       185       191       185       192       187       192
       187       193       188       194       188       195       189       195
       189       196       191       197       191       198       192       199
       195       200       196       201       196       202       197       203
       197       204       199       203       199       205       200       206
       200       207       201       207       201       208       203       209
       207       210       208       211       208       212       210       213
       210       214       211       213       211       215       213       216
       217       218       217       219       217       220       218       221
       218       222       219       223       219       224       220       225
       220       226       221       227       221       228       223       228
       223       229       224       230       224       231       225       231
       225       232       227       233       227       234       228       235
       231       236       232       237       232       238       233       239
       233       240       235       239       235       241       236       242
       236       243       237       243       237       244       239       245
       243       246       244       247       244       248       246       249
       246       250       247       249       247       251       249       252
       253       254       253       255       253       256       254       257
       254       258       255       259       255       260       256       261
       256       262       257       263       257       264       259       264
       259       265       260       266       260       267       261       267
       261       268       263       269       263       270       264       271
       267       272       268       273       268       274       269       275
       269       276       271       275       271       277       272       278
       272       279       273       279       273       280       275       281
       279       282       280       283       280       284       282       285
       282       286       283       285       283       287       285       288
       289       290       289       291       289       292       290       293
       290       294       291       295       291       296       292       297
       292       298       293       299       293       300       295       300
       295       301       296       302       296       303       297       303
       297       304       299       305       299       306       300       307
       303       308       304       309       304       310       305       311
       305       312       307       311       307       313       308       314
       308       315       309       315       309       316       311       317
       315       318       316       319       316       320       318       321
       318       322       319       321       319       323       321       324
       325       326       325       327       325       328       326       329
       326       330       327       331       327       332       328       333
       328       334       329       335       329       336       331       336
       331       337       332       338       332       339       333       339
       333       340       335       341       335       342       336       343
       339       344       340       345       340       346       341       347
       341       348       343       347       343       349       344       350
       344       351       345       351       345       352       347       353
       351       354       352       355       352       356       354       357
       354       358       355       357       355       359       357       360
       361       362       361       363       361       364       362       365
       362       366       363       367       363       368       364       369
       364       370       365       371       365       372       367       372
       367       373       368       374       368       375       369       375
       369       376       371       377       371       378       372       379
       375       380       376       381       376       382       377       383
       377       384       379       383       379       385       380       386
       380       387       381       387       381       388       383       389
       387       390       388       391       388       392       390       393
       390       394       391       393       391       395       393       396
       397       398       397       399       397       400       398       401
       398       402       399       403       399       404       400       405
       400       406       401       407       401       408       403       408
       403       409       404       410       404       411       405       411
       405       412       407       413       407       414       408       415
       411       416       412       417       412       418       413       419
       413       420       415       419       415       421       416       422
       416       423       417       423       417       424       419       425
       423       426       424       427       424       428       426       429
       426       430       427       429       427       431       429       432
       433       434       433       435       433       436       434       437
       434       438       435       439       435       440       436       441
       436       442       437       443       437       444       439       444
       439       445       440       446       440       447       441       447
       441       448       443       449       443       450       444       451
       447       452       448       453       448       454       449       455
       449       456       451       455       451       457       452       458
       452       459       453       459       453       460       455       461
       459       462       460       463       460       464       462       465
       462       466       463       465       463       467       465       468
       469       470       469       471       469       472       470       473
       470       474       471       475       471       476       472       477
       472       478       473       479       473       480       475       480
       475       481       476       482       476       483       477       483
       477       484       479       485       479       486       480       487
       483       488       484       489       484       490       485       491
       485       492       487       491       487       493       488       494
       488       495       489       495       489       496       491       497
       495       498       496       499       496       500       498       501
       498       502       499       501       499       503       501       504
       505       506       505       507       505       508       506       509
       506       510       507       511       507       512       508       513
       508       514       509       515       509       516       511       516
       511       517       512       518       512       519       513       519
       513       520       515       521       515       522       516       523
       519       524       520       525       520       526       521       527
       521       528       523       527       523       529       524       530
       524       531       525       531       525       532       527       533
       531       534       532       535       532       536       534       537
       534       538       535       537       535       539       537       540
       541       542       541       543       541       544       542       545
       542       546       543       547       543       548       544       549
       544       550       545       551       545       552       547       552
       547       553       548       554       548       555       549       555
       549       556       551       557       551       558       552       559
       555       560       556       561       556       562       557       563
       557       564       559       563       559       565       560       566
       560       567       561       567       561       568       563       569
       567       570       568       571       568       572       570       573
       570       574       571       573       571       575       573       576
       577       578       577       579       577       580       578       581
       578       582       579       583       579       584       580       585
       580       586       581       587       581       588       583       588
       583       589       584       590       584       591       585       591
       585       592       587       593       587       594       588       595
       591       596       592       597       592       598       593       599
       593       600       595       599       595       601       596       602
       596       603       597       603       597       604       599       605
       603       606       604       607       604       608       606       609
       606       610       607       609       607       611       609       612
       613       614       613       615       613       616       614       617
       614       618       615       619       615       620       616       621
       616       622       617       623       617       624       619       624
       619       625       620       626       620       627       621       627
       621       628       623       629       623       630       624       631
       627       632       628       633       628       634       629       635
       629       636       631       635       631       637       632       638
       632       639       633       639       633       640       635       641
       639       642       640       643       640       644       642       645
       642       646       643       645       643       647       645       648
       649       650       649       651       649       652       650       653
       650       654       651       655       651       656       652       657
       652       658       653       659       653       660       655       660
       655       661       656       662       656       663       657       663
       657       664       659       665       659       666       660       667
       663       668       664       669       664       670       665       671
       665       672       667       671       667       673       668       674
       668       675       669       675       669       676       671       677
       675       678       676       679       676       680       678       681
       678       682       679       681       679       683       681       684
       685       686       685       687       685       688       686       689
       686       690       687       691       687       692       688       693
       688       694       689       695       689       696       691       696
       691       697       692       698       692       699       693       699
       693       700       695       701       695       702       696       703
       699       704       700       705       700       706       701       707
       701       708       703       707       703       709       704       710
       704       711       705       711       705       712       707       713
       711       714       712       715       712       716       714       717
       714       718       715       717       715       719       717       720
       721       722       721       723       721       724       722       725
       722       726       723       727       723       728       724       729
       724       730       725       731       725       732       727       732
       727       733       728       734       728       735       729       735
       729       736       731       737       731       738       732       739
       735       740       736       741       736       742       737       743
       737       744       739       743       739       745       740       746
       740       747       741       747       741       748       743       749
       747       750       748       751       748       752       750       753
       750       754       751       753       751       755       753       756
       757       758       757       759       757       760       758       761
       758       762       759       763       759       764       760       765
       760       766       761       767       761       768       763       768
       763       769       764       770       764       771       765       771
       765       772       767       773       767       774       768       775
       771       776       772       777       772       778       773       779
       773       780       775       779       775       781       776       782
       776       783       777       783       777       784       779       785
       783       786       784       787       784       788       786       789
       786       790       787       789       787       791       789       792
       793       794       793       795       793       796       794       797
       794       798       795       799       795       800       796       801
       796       802       797       803       797       804       799       804
       799       805       800       806       800       807       801       807
       801       808       803       809       803       810       804       811
       807       812       808       813       808       814       809       815
       809       816       811       815       811       817       812       818
       812       819       813       819       813       820       815       821
       819       822       820       823       820       824       822       825
       822       826       823       825       823       827       825       828
       829       830       829       831       829       832       830       833
       830       834       831       835       831       836       832       837
       832       838       833       839       833       840       835       840
       835       841       836       842       836       843       837       843
       837       844       839       845       839       846       840       847
       843       848       844       849       844       850       845       851
       845       852       847       851       847       853       848       854
       848       855       849       855       849       856       851       857
       855       858       856       859       856       860       858       861
       858       862       859       861       859       863       861       864
       865       866       865       867       865       868       866       869
       866       870       867       871       867       872       868       873
       868       874       869       875       869       876       871       876
       871       877       872       878       872       879       873       879
       873       880       875       881       875       882       876       883
       879       884       880       885       880       886       881       887
       881       888       883       887       883       889       884       890
       884       891       885       891       885       892       887       893
       891       894       892       895       892       896       894       897
       894       898       895       897       895       899       897       900
       901       902       901       903       901       904       902       905
       902       906       903       907       903       908       904       909
       904       910       905       911       905       912       907       912
       907       913       908       914       908       915       909       915
       909       916       911       917       911       918       912       919
       915       920       916       921       916       922       917       923
       917       924       919       923       919       925       920       926
       920       927       921       927       921       928       923       929
       927       930       928       931       928       932       930       933
       930       934       931       933       931       935       933       936
       937       938       937       939       937       940       938       941
       938       942       939       943       939       944       940       945
       940       946       941       947       941       948       943       948
       943       949       944       950       944       951       945       951
       945       952       947       953       947       954       948       955
       951       956       952       957       952       958       953       959
       953       960       955       959       955       961       956       962
       956       963       957       963       957       964       959       965
       963       966       964       967       964       968       966       969
       966       970       967       969       967       971       969       972
       973       974       973       975       973       976       974       977
       974       978       975       979       975       980       976       981
       976       982       977       983       977       984       979       984
       979       985       980       986       980       987       981       987
       981       988       983       989       983       990       984       991
       987       992       988       993       988       994       989       995
       989       996       991       995       991       997       992       998
       992       999       993       999       993      1000       995      1001
       999      1002      1000      1003      1000      1004      1002      1005
      1002      1006      1003      1005      1003      1007      1005      1008
      1009      1010      1009      1011      1009      1012      1010      1013
      1010      1014      1011      1015      1011      1016      1012      1017
      1012      1018      1013      1019      1013      1020      1015      1020
      1015      1021      1016      1022      1016      1023      1017      1023
      1017      1024      1019      1025      1019      1026      1020      1027
      1023      1028      1024      1029      1024      1030      1025      1031
      1025      1032      1027      1031      1027      1033      1028      1034
      1028      1035      1029      1035      1029      1036      1031      1037
      1035      1038      1036      1039      1036      1040      1038      1041
      1038      1042      1039      1041      1039      1043      1041      1044
      1045      1046      1045      1047      1045      1048      1046      1049
      1046      1050      1047      1051      1047      1052      1048      1053
      1048      1054      1049      1055      1049      1056      1051      1056
      1051      1057      1052      1058      1052      1059      1053      1059
      1053      1060      1055      1061      1055      1062      1056      1063
      1059      1064      1060      1065      1060      1066      1061      1067
      1061      1068      1063      1067      1063      1069      1064      1070
      1064      1071      1065      1071      1065      1072      1067      1073
      1071      1074      1072      1075      1072      1076      1074      1077
      1074      1078      1075      1077      1075      1079      1077      1080
      1081      1082      1081      1083      1081      1084      1082      1085
      1082      1086      1083      1087      1083      1088      1084      1089
      1084      1090      1085      1091      1085      1092      1087      1092
      1087      1093      1088      1094      1088      1095      1089      1095
      1089      1096      1091      1097      1091      1098      1092      1099
      1095      1100      1096      1101      1096      1102      1097      1103
      1097      1104      1099      1103      1099      1105      1100      1106
      1100      1107      1101      1107      1101      1108      1103      1109
      1107      1110      1108      1111      1108      1112      1110      1113
      1110      1114      1111      1113      1111      1115      1113      1116
      1117      1118      1117      1119      1117      1120      1118      1121
      1118      1122      1119      1123      1119      1124      1120      1125
      1120      1126      1121      1127      1121      1128      1123      1128
      1123      1129      1124      1130      1124      1131      1125      1131
      1125      1132      1127      1133      1127      1134      1128      1135
      1131      1136      1132      1137      1132      1138      1133      1139
      1133      1140      1135      1139      1135      1141      1136      1142
      1136      1143      1137      1143      1137      1144      1139      1145
      1143      1146      1144      1147      1144      1148      1146      1149
      1146      1150      1147      1149      1147      1151      1149      1152
      1153      1154      1153      1155      1153      1156      1154      1157
      1154      1158      1155      1159      1155      1160      1156      1161
      1156      1162      1157      1163      1157      1164      1159      1164
      1159      1165      1160      1166      1160      1167      1161      1167
      1161      1168      1163      1169      1163      1170      1164      1171
      1167      1172      1168      1173      1168      1174      1169      1175
      1169      1176      1171      1175      1171      1177      1172      1178
      1172      1179      1173      1179      1173      1180      1175      1181
      1179      1182      1180      1183      1180      1184      1182      1185
      1182      1186      1183      1185      1183      1187      1185      1188
      1189      1190      1189      1191      1189      1192      1190      1193
      1190      1194      1191      1195      1191      1196      1192      1197
      1192      1198      1193      1199      1193      1200      1195      1200
      1195      1201      1196      1202      1196      1203      1197      1203
      1197      1204      1199      1205      1199      1206      1200      1207
      1203      1208      1204      1209      1204      1210      1205      1211
      1205      1212      1207      1211      1207      1213      1208      1214
      1208      1215      1209      1215      1209      1216      1211      1217
      1215      1218      1216      1219      1216      1220      1218      1221
      1218      1222      1219      1221      1219      1223      1221      1224
      1225      1226      1225      1227      1225      1228      1226      1229
      1226      1230      1227      1231      1227      1232      1228      1233
      1228      1234      1229      1235      1229      1236      1231      1236
      1231      1237      1232      1238      1232      1239      1233      1239
      1233      1240      1235      1241      1235      1242      1236      1243
      1239      1244      1240      1245      1240      1246      1241      1247
      1241      1248      1243      1247      1243      1249      1244      1250
      1244      1251      1245      1251      1245      1252      1247      1253
      1251      1254      1252      1255      1252      1256      1254      1257
      1254      1258      1255      1257      1255      1259      1257      1260
      1261      1262      1261      1263      1261      1264      1262      1265
      1262      1266      1263      1267      1263      1268      1264      1269
      1264      1270      1265      1271      1265      1272      1267      1272
      1267      1273      1268      1274      1268      1275      1269      1275
      1269      1276      1271      1277      1271      1278      1272      1279
      1275      1280      1276      1281      1276      1282      1277      1283
      1277      1284      1279      1283      1279      1285      1280      1286
      1280      1287      1281      1287      1281      1288      1283      1289
      1287      1290      1288      1291      1288      1292      1290      1293
      1290      1294      1291      1293      1291      1295      1293      1296
      1297      1298      1297      1299      1297      1300      1298      1301
      1298      1302      1299      1303      1299      1304      1300      1305
      1300      1306      1301      1307      1301      1308      1303      1308
      1303      1309      1304      1310      1304      1311      1305      1311
      1305      1312      1307      1313      1307      1314      1308      1315
      1311      1316      1312      1317      1312      1318      1313      1319
      1313      1320      1315      1319      1315      1321      1316      1322
      1316      1323      1317      1323      1317      1324      1319      1325
      1323      1326      1324      1327      1324      1328      1326      1329
      1326      1330      1327      1329      1327      1331      1329      1332
      1333      1334      1333      1335      1333      1336      1334      1337
      1334      1338      1335      1339      1335      1340      1336      1341
      1336      1342      1337      1343      1337      1344      1339      1344
      1339      1345      1340      1346      1340      1347      1341      1347
      1341      1348      1343      1349      1343      1350      1344      1351
      1347      1352      1348      1353      1348      1354      1349      1355
      1349      1356      1351      1355      1351      1357      1352      1358
      1352      1359      1353      1359      1353      1360      1355      1361
      1359      1362      1360      1363      1360      1364      1362      1365
      1362      1366      1363      1365      1363      1367      1365      1368
      1369      1370      1369      1371      1369      1372      1370      1373
      1370      1374      1371      1375      1371      1376      1372      1377
      1372      1378      1373      1379      1373      1380      1375      1380
      1375      1381      1376      1382      1376      1383      1377      1383
      1377      1384      1379      1385      1379      1386      1380      1387
      1383      1388      1384      1389      1384      1390      1385      1391
      1385      1392      1387      1391      1387      1393      1388      1394
      1388      1395      1389      1395      1389      1396      1391      1397
      1395      1398      1396      1399      1396      1400      1398      1401
      1398      1402      1399      1401      1399      1403      1401      1404
      1405      1406      1405      1407      1405      1408      1406      1409
      1406      1410      1407      1411      1407      1412      1408      1413
      1408      1414      1409      1415      1409      1416      1411      1416
      1411      1417      1412      1418      1412      1419      1413      1419
      1413      1420      1415      1421      1415      1422      1416      1423
      1419      1424      1420      1425      1420      1426      1421      1427
      1421      1428      1423      1427      1423      1429      1424      1430
      1424      1431      1425      1431      1425      1432      1427      1433
      1431      1434      1432      1435      1432      1436      1434      1437
      1434      1438      1435      1437      1435      1439      1437      1440
      1441      1442      1441      1443      1441      1444      1442      1445
      1442      1446      1443      1447      1443      1448      1444      1449
      1444      1450      1445      1451      1445      1452      1447      1452
      1447      1453      1448      1454      1448      1455      1449      1455
      1449      1456      1451      1457      1451      1458      1452      1459
      1455      1460      1456      1461      1456      1462      1457      1463
      1457      1464      1459      1463      1459      1465      1460      1466
      1460      1467      1461      1467      1461      1468      1463      1469
      1467      1470      1468      1471      1468      1472      1470      1473
      1470      1474      1471      1473      1471      1475      1473      1476
      1477      1478      1477      1479      1477      1480      1478      1481
      1478      1482      1479      1483      1479      1484      1480      1485
      1480      1486      1481      1487      1481      1488      1483      1488
      1483      1489      1484      1490      1484      1491      1485      1491
      1485      1492      1487      1493      1487      1494      1488      1495
      1491      1496      1492      1497      1492      1498      1493      1499
      1493      1500      1495      1499      1495      1501      1496      1502
      1496      1503      1497      1503      1497      1504      1499      1505
      1503      1506      1504      1507      1504      1508      1506      1509
      1506      1510      1507      1509      1507      1511      1509      1512
      1513      1514      1513      1515      1513      1516      1514      1517
      1514      1518      1515      1519      1515      1520      1516      1521
      1516      1522      1517      1523      1517      1524      1519      1524
      1519      1525      1520      1526      1520      1527      1521      1527
      1521      1528      1523      1529      1523      1530      1524      1531
      1527      1532      1528      1533      1528      1534      1529      1535
      1529      1536      1531      1535      1531      1537      1532      1538
      1532      1539      1533      1539      1533      1540      1535      1541
      1539      1542      1540      1543      1540      1544      1542      1545
      1542      1546      1543      1545      1543      1547      1545      1548
      1549      1550      1549      1551      1549      1552      1550      1553
      1550      1554      1551      1555      1551      1556      1552      1557
      1552      1558      1553      1559      1553      1560      1555      1560
      1555      1561      1556      1562      1556      1563      1557      1563
      1557      1564      1559      1565      1559      1566      1560      1567
      1563      1568      1564      1569      1564      1570      1565      1571
      1565      1572      1567      1571      1567      1573      1568      1574
      1568      1575      1569      1575      1569      1576      1571      1577
      1575      1578      1576      1579      1576      1580      1578      1581
      1578      1582      1579      1581      1579      1583      1581      1584
      1585      1586      1585      1587      1585      1588      1586      1589
      1586      1590      1587      1591      1587      1592      1588      1593
      1588      1594      1589      1595      1589      1596      1591      1596
      1591      1597      1592      1598      1592      1599      1593      1599
      1593      1600      1595      1601      1595      1602      1596      1603
      1599      1604      1600      1605      1600      1606      1601      1607
      1601      1608      1603      1607      1603      1609      1604      1610
      1604      1611      1605      1611      1605      1612      1607      1613
      1611      1614      1612      1615      1612      1616      1614      1617
      1614      1618      1615      1617      1615      1619      1617      1620
      1621      1622      1621      1623      1621      1624      1622      1625
      1622      1626      1623      1627      1623      1628      1624      1629
      1624      1630      1625      1631      1625      1632      1627      1632
      1627      1633      1628      1634      1628      1635      1629      1635
      1629      1636      1631      1637      1631      1638      1632      1639
      1635      1640      1636      1641      1636      1642      1637      1643
      1637      1644      1639      1643      1639      1645      1640      1646
      1640      1647      1641      1647      1641      1648      1643      1649
      1647      1650      1648      1651      1648      1652      1650      1653
      1650      1654      1651      1653      1651      1655      1653      1656
      1657      1658      1657      1659      1657      1660      1658      1661
      1658      1662      1659      1663      1659      1664      1660      1665
      1660      1666      1661      1667      1661      1668      1663      1668
      1663      1669      1664      1670      1664      1671      1665      1671
      1665      1672      1667      1673      1667      1674      1668      1675
      1671      1676      1672      1677      1672      1678      1673      1679
      1673      1680      1675      1679      1675      1681      1676      1682
      1676      1683      1677      1683      1677      1684      1679      1685
      1683      1686      1684      1687      1684      1688      1686      1689
      1686      1690      1687      1689      1687      1691      1689      1692
      1693      1694      1693      1695      1693      1696      1694      1697
      1694      1698      1695      1699      1695      1700      1696      1701
      1696      1702      1697      1703      1697      1704      1699      1704
      1699      1705      1700      1706      1700      1707      1701      1707
      1701      1708      1703      1709      1703      1710      1704      1711
      1707      1712      1708      1713      1708      1714      1709      1715
      1709      1716      1711      1715      1711      1717      1712      1718
      1712      1719      1713      1719      1713      1720      1715      1721
      1719      1722      1720      1723      1720      1724      1722      1725
      1722      1726      1723      1725      1723      1727      1725      1728
      1729      1730      1729      1731      1729      1732      1730      1733
      1730      1734      1731      1735      1731      1736      1732      1737
      1732      1738      1733      1739      1733      1740      1735      1740
      1735      1741      1736      1742      1736      1743      1737      1743
      1737      1744      1739      1745      1739      1746      1740      1747
      1743      1748      1744      1749      1744      1750      1745      1751
      1745      1752      1747      1751      1747      1753      1748      1754
      1748      1755      1749      1755      1749      1756      1751      1757
      1755      1758      1756      1759      1756      1760      1758      1761
      1758      1762      1759      1761      1759      1763      1761      1764
      1765      1766      1765      1767      1765      1768      1766      1769
      1766      1770      1767      1771      1767      1772      1768      1773
      1768      1774      1769      1775      1769      1776      1771      1776
      1771      1777      1772      1778      1772      1779      1773      1779
      1773      1780      1775      1781      1775      1782      1776      1783
      1779      1784      1780      1785      1780      1786      1781      1787
      1781      1788      1783      1787      1783      1789      1784      1790
      1784      1791      1785      1791      1785      1792      1787      1793
      1791      1794      1792      1795      1792      1796      1794      1797
      1794      1798      1795      1797      1795      1799      1797      1800
      1801      1802      1801      1803      1801      1804      1802      1805
      1802      1806      1803      1807      1803      1808      1804      1809
      1804      1810      1805      1811      1805      1812      1807      1812
      1807      1813      1808      1814      1808      1815      1809      1815
      1809      1816      1811      1817      1811      1818      1812      1819
      1815      1820      1816      1821      1816      1822      1817      1823
      1817      1824      1819      1823      1819      1825      1820      1826
      1820      1827      1821      1827      1821      1828      1823      1829
      1827      1830      1828      1831      1828      1832      1830      1833
      1830      1834      1831      1833      1831      1835      1833      1836
      1837      1838      1837      1839      1837      1840      1838      1841
      1838      1842      1839      1843      1839      1844      1840      1845
      1840      1846      1841      1847      1841      1848      1843      1848
      1843      1849      1844      1850      1844      1851      1845      1851
      1845      1852      1847      1853      1847      1854      1848      1855
      1851      1856      1852      1857      1852      1858      1853      1859
      1853      1860      1855      1859      1855      1861      1856      1862
      1856      1863      1857      1863      1857      1864      1859      1865
      1863      1866      1864      1867      1864      1868      1866      1869
      1866      1870      1867      1869      1867      1871      1869      1872
      1873      1874      1873      1875      1873      1876      1874      1877
      1874      1878      1875      1879      1875      1880      1876      1881
      1876      1882      1877      1883      1877      1884      1879      1884
      1879      1885      1880      1886      1880      1887      1881      1887
      1881      1888      1883      1889      1883      1890      1884      1891
      1887      1892      1888      1893      1888      1894      1889      1895
      1889      1896      1891      1895      1891      1897      1892      1898
      1892      1899      1893      1899      1893      1900      1895      1901
      1899      1902      1900      1903      1900      1904      1902      1905
      1902      1906      1903      1905      1903      1907      1905      1908
      1909      1910      1909      1911      1909      1912      1910      1913
      1910      1914      1911      1915      1911      1916      1912      1917
      1912      1918      1913      1919      1913      1920      1915      1920
      1915      1921      1916      1922      1916      1923      1917      1923
      1917      1924      1919      1925      1919      1926      1920      1927
      1923      1928      1924      1929      1924      1930      1925      1931
      1925      1932      1927      1931      1927      1933      1928      1934
      1928      1935      1929      1935      1929      1936      1931      1937
      1935      1938      1936      1939      1936      1940      1938      1941
      1938      1942      1939      1941      1939      1943      1941      1944

      3564 !NTHETA: angles
         1         2         5         1         2         6         1         3         7
         1         3         8         1         4         9         1         4        10
         2         1         3         2         1         4         2         5        11
         2         5        12         3         1         4         3         7        12
         3         7        13         3         8        14         3         8        15
         4         9        15         4         9        16         5         2         6
         5        11        17         5        11        18         5        12         7
         5        12        19         7         3         8         7        12        19
         8        15         9         8        15        20         9         4        10
         9        15        20         9        16        21         9        16        22
        11         5        12        11        17        23        11        17        24
        12         7        13        12        19        23        12        19        25
        14         8        15        15         9        16        15        20        26
        15        20        27        16        21        27        16        21        28
        17        11        18        17        23        19        17        23        29
        19        23        29        20        27        21        20        27        30
        21        16        22        21        27        30        21        28        31
        21        28        32        23        17        24        23        19        25
        26        20        27        27        21        28        27        30        33
        27        30        34        28        31        33        28        31        35
        30        33        31        30        33        36        31        28        32
        31        33        36        33        30        34        33        31        35
        37        38        41        37        38        42        37        39        43
        37        39        44        37        40        45        37        40        46
        38        37        39        38        37        40        38        41        47
        38        41        48        39        37        40        39        43        48
        39        43        49        39        44        50        39        44        51
        40        45        51        40        45        52        41        38        42
        41        47        53        41        47        54        41        48        43
        41        48        55        43        39        44        43        48        55
        44        51        45        44        51        56        45        40        46
        45        51        56        45        52        57        45        52        58
        47        41        48        47        53        59        47        53        60
        48        43        49        48        55        59        48        55        61
        50        44        51        51        45        52        51        56        62
        51        56        63        52        57        63        52        57        64
        53        47        54        53        59        55        53        59        65
        55        59        65        56        63        57        56        63        66
        57        52        58        57        63        66        57        64        67
        57        64        68        59        53        60        59        55        61
        62        56        63        63        57        64        63        66        69
        63        66        70        64        67        69        64        67        71
        66        69        67        66        69        72        67        64        68
        67        69        72        69        66        70        69        67        71
        73        74        77        73        74        78        73        75        79
        73        75        80        73        76        81        73        76        82
        74        73        75        74        73        76        74        77        83
        74        77        84        75        73        76        75        79        84
        75        79        85        75        80        86        75        80        87
        76        81        87        76        81        88        77        74        78
        77        83        89        77        83        90        77        84        79
        77        84        91        79        75        80        79        84        91
        80        87        81        80        87        92        81        76        82
        81        87        92        81        88        93        81        88        94
        83        77        84        83        89        95        83        89        96
        84        79        85        84        91        95        84        91        97
        86        80        87        87        81        88        87        92        98
        87        92        99        88        93        99        88        93       100
        89        83        90        89        95        91        89        95       101
        91        95       101        92        99        93        92        99       102
        93        88        94        93        99       102        93       100       103
        93       100       104        95        89        96        95        91        97
        98        92        99        99        93       100        99       102       105
        99       102       106       100       103       105       100       103       107
       102       105       103       102       105       108       103       100       104
       103       105       108       105       102       106       105       103       107
       109       110       113       109       110       114       109       111       115
       109       111       116       109       112       117       109       112       118
       110       109       111       110       109       112       110       113       119
       110       113       120       111       109       112       111       115       120
       111       115       121       111       116       122       111       116       123
       112       117       123       112       117       124       113       110       114
       113       119       125       113       119       126       113       120       115
       113       120       127       115       111       116       115       120       127
       116       123       117       116       123       128       117       112       118
       117       123       128       117       124       129       117       124       130
       119       113       120       119       125       131       119       125       132
       120       115       121       120       127       131       120       127       133
       122       116       123       123       117       124       123       128       134
       123       128       135       124       129       135       124       129       136
       125       119       126       125       131       127       125       131       137
       127       131       137       128       135       129       128       135       138
       129       124       130       129       135       138       129       136       139
       129       136       140       131       125       132       131       127       133
       134       128       135       135       129       136       135       138       141
       135       138       142       136       139       141       136       139       143
       138       141       139       138       141       144       139       136       140
       139       141       144       141       138       142       141       139       143
       145       146       149       145       146       150       145       147       151
       145       147       152       145       148       153       145       148       154
       146       145       147       146       145       148       146       149       155
       146       149       156       147       145       148       147       151       156
       147       151       157       147       152       158       147       152       159
       148       153       159       148       153       160       149       146       150
       149       155       161       149       155       162       149       156       151
       149       156       163       151       147       152       151       156       163
       152       159       153       152       159       164       153       148       154
       153       159       164       153       160       165       153       160       166
       155       149       156       155       161       167       155       161       168
       156       151       157       156       163       167       156       163       169
       158       152       159       159       153       160       159       164       170
       159       164       171       160       165       171       160       165       172
       161       155       162       161       167       163       161       167       173
       163       167       173       164       171       165       164       171       174
       165       160       166       165       171       174       165       172       175
       165       172       176       167       161       168       167       163       169
       170       164       171       171       165       172       171       174       177
       171       174       178       172       175       177       172       175       179
       174       177       175       174       177       180       175       172       176
       175       177       180       177       174       178       177       175       179
       181       182       185       181       182       186       181       183       187
       181       183       188       181       184       189       181       184       190
       182       181       183       182       181       184       182       185       191
       182       185       192       183       181       184       183       187       192
       183       187       193       183       188       194       183       188       195
       184       189       195       184       189       196       185       182       186
       185       191       197       185       191       198       185       192       187
       185       192       199       187       183       188       187       192       199
       188       195       189       188       195       200       189       184       190
       189       195       200       189       196       201       189       196       202
       191       185       192       191       197       203       191       197       204
       192       187       193       192       199       203       192       199       205
       194       188       195       195       189       196       195       200       206
       195       200       207       196       201       207       196       201       208
       197       191       198       197       203       199       197       203       209
       199       203       209       200       207       201       200       207       210
       201       196       202       201       207       210       201       208       211
       201       208       212       203       197       204       203       199       205
       206       200       207       207       201       208       207       210       213
       207       210       214       208       211       213       208       211       215
       210       213       211       210       213       216       211       208       212
       211       213       216       213       210       214       213       211       215
       217       218       221       217       218       222       217       219       223
       217       219       224       217       220       225       217       220       226
       218       217       219       218       217       220       218       221       227
       218       221       228       219       217       220       219       223       228
       219       223       229       219       224       230       219       224       231
       220       225       231       220       225       232       221       218       222
       221       227       233       221       227       234       221       228       223
       221       228       235       223       219       224       223       228       235
       224       231       225       224       231       236       225       220       226
       225       231       236       225       232       237       225       232       238
       227       221       228       227       233       239       227       233       240
       228       223       229       228       235       239       228       235       241
       230       224       231       231       225       232       231       236       242
       231       236       243       232       237       243       232       237       244
       233       227       234       233       239       235       233       239       245
       235       239       245       236       243       237       236       243       246
       237       232       238       237       243       246       237       244       247
       237       244       248       239       233       240       239       235       241
       242       236       243       243       237       244       243       246       249
       243       246       250       244       247       249       244       247       251
       246       249       247       246       249       252       247       244       248
       247       249       252       249       246       250       249       247       251
       253       254       257       253       254       258       253       255       259
       253       255       260       253       256       261       253       256       262
       254       253       255       254       253       256       254       257       263
       254       257       264       255       253       256       255       259       264
       255       259       265       255       260       266       255       260       267
       256       261       267       256       261       268       257       254       258
       257       263       269       257       263       270       257       264       259
       257       264       271       259       255       260       259       264       271
       260       267       261       260       267       272       261       256       262
       261       267       272       261       268       273       261       268       274
       263       257       264       263       269       275       263       269       276
       264       259       265       264       271       275       264       271       277
       266       260       267       267       261       268       267       272       278
       267       272       279       268       273       279       268       273       280
       269       263       270       269       275       271       269       275       281
       271       275       281       272       279       273       272       279       282
       273       268       274       273       279       282       273       280       283
       273       280       284       275       269       276       275       271       277
       278       272       279       279       273       280       279       282       285
       279       282       286       280       283       285       280       283       287
       282       285       283       282       285       288       283       280       284
       283       285       288       285       282       286       285       283       287
       289       290       293       289       290       294       289       291       295
       289       291       296       289       292       297       289       292       298
       290       289       291       290       289       292       290       293       299
       290       293       300       291       289       292       291       295       300
       291       295       301       291       296       302       291       296       303
       292       297       303       292       297       304       293       290       294
       293       299       305       293       299       306       293       300       295
       293       300       307       295       291       296       295       300       307
       296       303       297       296       303       308       297       292       298
       297       303       308       297       304       309       297       304       310
       299       293       300       299       305       311       299       305       312
       300       295       301       300       307       311       300       307       313
       302       296       303       303       297       304       303       308       314
       303       308       315       304       309       315       304       309       316
       305       299       306       305       311       307       305       311       317
       307       311       317       308       315       309       308       315       318
       309       304       310       309       315       318       309       316       319
       309       316       320       311       305       312       311       307       313
       314       308       315       315       309       316       315       318       321
       315       318       322       316       319       321       316       319       323
       318       321       319       318       321       324       319       316       320
       319       321       324       321       318       322       321       319       323
       325       326       329       325       326       330       325       327       331
       325       327       332       325       328       333       325       328       334
       326       325       327       326       325       328       326       329       335
       326       329       336       327       325       328       327       331       336
       327       331       337       327       332       338       327       332       339
       328       333       339       328       333       340       329       326       330
       329       335       341       329       335       342       329       336       331
       329       336       343       331       327       332       331       336       343
       332       339       333       332       339       344       333       328       334
       333       339       344       333       340       345       333       340       346
       335       329       336       335       341       347       335       341       348
       336       331       337       336       343       347       336       343       349
       338       332       339       339       333       340       339       344       350
       339       344       351       340       345       351       340       345       352
       341       335       342       341       347       343       341       347       353
       343       347       353       344       351       345       344       351       354
       345       340       346       345       351       354       345       352       355
       345       352       356       347       341       348       347       343       349
       350       344       351       351       345       352       351       354       357
       351       354       358       352       355       357       352       355       359
       354       357       355       354       357       360       355       352       356
       355       357       360       357       354       358       357       355       359
       361       362       365       361       362       366       361       363       367
       361       363       368       361       364       369       361       364       370
       362       361       363       362       361       364       362       365       371
       362       365       372       363       361       364       363       367       372
       363       367       373       363       368       374       363       368       375
       364       369       375       364       369       376       365       362       366
       365       371       377       365       371       378       365       372       367
       365       372       379       367       363       368       367       372       379
       368       375       369       368       375       380       369       364       370
       369       375       380       369       376       381       369       376       382
       371       365       372       371       377       383       371       377       384
       372       367       373       372       379       383       372       379       385
       374       368       375       375       369       376       375       380       386
       375       380       387       376       381       387       376       381       388
       377       371       378       377       383       379       377       383       389
       379       383       389       380       387       381       380       387       390
       381       376       382       381       387       390       381       388       391
       381       388       392       383       377       384       383       379       385
       386       380       387       387       381       388       387       390       393
       387       390       394       388       391       393       388       391       395
       390       393       391       390       393       396       391       388       392
       391       393       396       393       390       394       393       391       395
       397       398       401       397       398       402       397       399       403
       397       399       404       397       400       405       397       400       406
       398       397       399       398       397       400       398       401       407
       398       401       408       399       397       400       399       403       408
       399       403       409       399       404       410       399       404       411
       400       405       411       400       405       412       401       398       402
       401       407       413       401       407       414       401       408       403
       401       408       415       403       399       404       403       408       415
       404       411       405       404       411       416       405       400       406
       405       411       416       405       412       417       405       412       418
       407       401       408       407       413       419       407       413       420
       408       403       409       408       415       419       408       415       421
       410       404       411       411       405       412       411       416       422
       411       416       423       412       417       423       412       417       424
       413       407       414       413       419       415       413       419       425
       415       419       425       416       423       417       416       423       426
       417       412       418       417       423       426       417       424       427
       417       424       428       419       413       420       419       415       421
       422       416       423       423       417       424       423       426       429
       423       426       430       424       427       429       424       427       431
       426       429       427       426       429       432       427       424       428
       427       429       432       429       426       430       429       427       431
       433       434       437       433       434       438       433       435       439
       433       435       440       433       436       441       433       436       442
       434       433       435       434       433       436       434       437       443
       434       437       444       435       433       436       435       439       444
       435       439       445       435       440       446       435       440       447
       436       441       447       436       441       448       437       434       438
       437       443       449       437       443       450       437       444       439
       437       444       451       439       435       440       439       444       451
       440       447       441       440       447       452       441       436       442
       441       447       452       441       448       453       441       448       454
       443       437       444       443       449       455       443       449       456
       444       439       445       444       451       455       444       451       457
       446       440       447       447       441       448       447       452       458
       447       452       459       448       453       459       448       453       460
       449       443       450       449       455       451       449       455       461
       451       455       461       452       459       453       452       459       462
       453       448       454       453       459       462       453       460       463
       453       460       464       455       449       456       455       451       457
       458       452       459       459       453       460       459       462       465
       459       462       466       460       463       465       460       463       467
       462       465       463       462       465       468       463       460       464
       463       465       468       465       462       466       465       463       467
       469       470       473       469       470       474       469       471       475
       469       471       476       469       472       477       469       472       478
       470       469       471       470       469       472       470       473       479
       470       473       480       471       469       472       471       475       480
       471       475       481       471       476       482       471       476       483
       472       477       483       472       477       484       473       470       474
       473       479       485       473       479       486       473       480       475
       473       480       487       475       471       476       475       480       487
       476       483       477       476       483       488       477       472       478
       477       483       488       477       484       489       477       484       490
       479       473       480       479       485       491       479       485       492
       480       475       481       480       487       491       480       487       493
       482       476       483       483       477       484       483       488       494
       483       488       495       484       489       495       484       489       496
       485       479       486       485       491       487       485       491       497
       487       491       497       488       495       489       488       495       498
       489       484       490       489       495       498       489       496       499
       489       496       500       491       485       492       491       487       493
       494       488       495       495       489       496       495       498       501
       495       498       502       496       499       501       496       499       503
       498       501       499       498       501       504       499       496       500
       499       501       504       501       498       502       501       499       503
       505       506       509       505       506       510       505       507       511
       505       507       512       505       508       513       505       508       514
       506       505       507       506       505       508       506       509       515
       506       509       516       507       505       508       507       511       516
       507       511       517       507       512       518       507       512       519
       508       513       519       508       513       520       509       506       510
       509       515       521       509       515       522       509       516       511
       509       516       523       511       507       512       511       516       523
       512       519       513       512       519       524       513       508       514
       513       519       524       513       520       525       513       520       526
       515       509       516       515       521       527       515       521       528
       516       511       517       516       523       527       516       523       529
       518       512       519       519       513       520       519       524       530
       519       524       531       520       525       531       520       525       532
       521       515       522       521       527       523       521       527       533
       523       527       533       524       531       525       524       531       534
       525       520       526       525       531       534       525       532       535
       525       532       536       527       521       528       527       523       529
       530       524       531       531       525       532       531       534       537
       531       534       538       532       535       537       532       535       539
       534       537       535       534       537       540       535       532       536
       535       537       540       537       534       538       537       535       539
       541       542       545       541       542       546       541       543       547
       541       543       548       541       544       549       541       544       550
       542       541       543       542       541       544       542       545       551
       542       545       552       543       541       544       543       547       552
       543       547       553       543       548       554       543       548       555
       544       549       555       544       549       556       545       542       546
       545       551       557       545       551       558       545       552       547
       545       552       559       547       543       548       547       552       559
       548       555       549       548       555       560       549       544       550
       549       555       560       549       556       561       549       556       562
       551       545       552       551       557       563       551       557       564
       552       547       553       552       559       563       552       559       565
       554       548       555       555       549       556       555       560       566
       555       560       567       556       561       567       556       561       568
       557       551       558       557       563       559       557       563       569
       559       563       569       560       567       561       560       567       570
       561       556       562       561       567       570       561       568       571
       561       568       572       563       557       564       563       559       565
       566       560       567       567       561       568       567       570       573
       567       570       574       568       571       573       568       571       575
       570       573       571       570       573       576       571       568       572
       571       573       576       573       570       574       573       571       575
       577       578       581       577       578       582       577       579       583
       577       579       584       577       580       585       577       580       586
       578       577       579       578       577       580       578       581       587
       578       581       588       579       577       580       579       583       588
       579       583       589       579       584       590       579       584       591
       580       585       591       580       585       592       581       578       582
       581       587       593       581       587       594       581       588       583
       581       588       595       583       579       584       583       588       595
       584       591       585       584       591       596       585       580       586
       585       591       596       585       592       597       585       592       598
       587       581       588       587       593       599       587       593       600
       588       583       589       588       595       599       588       595       601
       590       584       591       591       585       592       591       596       602
       591       596       603       592       597       603       592       597       604
       593       587       594       593       599       595       593       599       605
       595       599       605       596       603       597       596       603       606
       597       592       598       597       603       606       597       604       607
       597       604       608       599       593       600       599       595       601
       602       596       603       603       597       604       603       606       609
       603       606       610       604       607       609       604       607       611
       606       609       607       606       609       612       607       604       608
       607       609       612       609       606       610       609       607       611
       613       614       617       613       614       618       613       615       619
       613       615       620       613       616       621       613       616       622
       614       613       615       614       613       616       614       617       623
       614       617       624       615       613       616       615       619       624
       615       619       625       615       620       626       615       620       627
       616       621       627       616       621       628       617       614       618
       617       623       629       617       623       630       617       624       619
       617       624       631       619       615       620       619       624       631
       620       627       621       620       627       632       621       616       622
       621       627       632       621       628       633       621       628       634
       623       617       624       623       629       635       623       629       636
       624       619       625       624       631       635       624       631       637
       626       620       627       627       621       628       627       632       638
       627       632       639       628       633       639       628       633       640
       629       623       630       629       635       631       629       635       641
       631       635       641       632       639       633       632       639       642
       633       628       634       633       639       642       633       640       643
       633       640       644       635       629       636       635       631       637
       638       632       639       639       633       640       639       642       645
       639       642       646       640       643       645       640       643       647
       642       645       643       642       645       648       643       640       644
       643       645       648       645       642       646       645       643       647
       649       650       653       649       650       654       649       651       655
       649       651       656       649       652       657       649       652       658
       650       649       651       650       649       652       650       653       659
       650       653       660       651       649       652       651       655       660
       651       655       661       651       656       662       651       656       663
       652       657       663       652       657       664       653       650       654
       653       659       665       653       659       666       653       660       655
       653       660       667       655       651       656       655       660       667
       656       663       657       656       663       668       657       652       658
       657       663       668       657       664       669       657       664       670
       659       653       660       659       665       671       659       665       672
       660       655       661       660       667       671       660       667       673
       662       656       663       663       657       664       663       668       674
       663       668       675       664       669       675       664       669       676
       665       659       666       665       671       667       665       671       677
       667       671       677       668       675       669       668       675       678
       669       664       670       669       675       678       669       676       679
       669       676       680       671       665       672       671       667       673
       674       668       675       675       669       676       675       678       681
       675       678       682       676       679       681       676       679       683
       678       681       679       678       681       684       679       676       680
       679       681       684       681       678       682       681       679       683
       685       686       689       685       686       690       685       687       691
       685       687       692       685       688       693       685       688       694
       686       685       687       686       685       688       686       689       695
       686       689       696       687       685       688       687       691       696
       687       691       697       687       692       698       687       692       699
       688       693       699       688       693       700       689       686       690
       689       695       701       689       695       702       689       696       691
       689       696       703       691       687       692       691       696       703
       692       699       693       692       699       704       693       688       694
       693       699       704       693       700       705       693       700       706
       695       689       696       695       701       707       695       701       708
       696       691       697       696       703       707       696       703       709
       698       692       699       699       693       700       699       704       710
       699       704       711       700       705       711       700       705       712
       701       695       702       701       707       703       701       707       713
       703       707       713       704       711       705       704       711       714
       705       700       706       705       711       714       705       712       715
       705       712       716       707       701       708       707       703       709
       710       704       711       711       705       712       711       714       717
       711       714       718       712       715       717       712       715       719
       714       717       715       714       717       720       715       712       716
       715       717       720       717       714       718       717       715       719
       721       722       725       721       722       726       721       723       727
       721       723       728       721       724       729       721       724       730
       722       721       723       722       721       724       722       725       731
       722       725       732       723       721       724       723       727       732
       723       727       733       723       728       734       723       728       735
       724       729       735       724       729       736       725       722       726
       725       731       737       725       731       738       725       732       727
       725       732       739       727       723       728       727       732       739
       728       735       729       728       735       740       729       724       730
       729       735       740       729       736       741       729       736       742
       731       725       732       731       737       743       731       737       744
       732       727       733       732       739       743       732       739       745
       734       728       735       735       729       736       735       740       746
       735       740       747       736       741       747       736       741       748
       737       731       738       737       743       739       737       743       749
       739       743       749       740       747       741       740       747       750
       741       736       742       741       747       750       741       748       751
       741       748       752       743       737       744       743       739       745
       746       740       747       747       741       748       747       750       753
       747       750       754       748       751       753       748       751       755
       750       753       751       750       753       756       751       748       752
       751       753       756       753       750       754       753       751       755
       757       758       761       757       758       762       757       759       763
       757       759       764       757       760       765       757       760       766
       758       757       759       758       757       760       758       761       767
       758       761       768       759       757       760       759       763       768
       759       763       769       759       764       770       759       764       771
       760       765       771       760       765       772       761       758       762
       761       767       773       761       767       774       761       768       763
       761       768       775       763       759       764       763       768       775
       764       771       765       764       771       776       765       760       766
       765       771       776       765       772       777       765       772       778
       767       761       768       767       773       779       767       773       780
       768       763       769       768       775       779       768       775       781
       770       764       771       771       765       772       771       776       782
       771       776       783       772       777       783       772       777       784
       773       767       774       773       779       775       773       779       785
       775       779       785       776       783       777       776       783       786
       777       772       778       777       783       786       777       784       787
       777       784       788       779       773       780       779       775       781
       782       776       783       783       777       784       783       786       789
       783       786       790       784       787       789       784       787       791
       786       789       787       786       789       792       787       784       788
       787       789       792       789       786       790       789       787       791
       793       794       797       793       794       798       793       795       799
       793       795       800       793       796       801       793       796       802
       794       793       795       794       793       796       794       797       803
       794       797       804       795       793       796       795       799       804
       795       799       805       795       800       806       795       800       807
       796       801       807       796       801       808       797       794       798
       797       803       809       797       803       810       797       804       799
       797       804       811       799       795       800       799       804       811
       800       807       801       800       807       812       801       796       802
       801       807       812       801       808       813       801       808       814
       803       797       804       803       809       815       803       809       816
       804       799       805       804       811       815       804       811       817
       806       800       807       807       801       808       807       812       818
       807       812       819       808       813       819       808       813       820
       809       803       810       809       815       811       809       815       821
       811       815       821       812       819       813       812       819       822
       813       808       814       813       819       822       813       820       823
       813       820       824       815       809       816       815       811       817
       818       812       819       819       813       820       819       822       825
       819       822       826       820       823       825       820       823       827
       822       825       823       822       825       828       823       820       824
       823       825       828       825       822       826       825       823       827
       829       830       833       829       830       834       829       831       835
       829       831       836       829       832       837       829       832       838
       830       829       831       830       829       832       830       833       839
       830       833       840       831       829       832       831       835       840
       831       835       841       831       836       842       831       836       843
       832       837       843       832       837       844       833       830       834
       833       839       845       833       839       846       833       840       835
       833       840       847       835       831       836       835       840       847
       836       843       837       836       843       848       837       832       838
       837       843       848       837       844       849       837       844       850
       839       833       840       839       845       851       839       845       852
       840       835       841       840       847       851       840       847       853
       842       836       843       843       837       844       843       848       854
       843       848       855       844       849       855       844       849       856
       845       839       846       845       851       847       845       851       857
       847       851       857       848       855       849       848       855       858
       849       844       850       849       855       858       849       856       859
       849       856       860       851       845       852       851       847       853
       854       848       855       855       849       856       855       858       861
       855       858       862       856       859       861       856       859       863
       858       861       859       858       861       864       859       856       860
       859       861       864       861       858       862       861       859       863
       865       866       869       865       866       870       865       867       871
       865       867       872       865       868       873       865       868       874
       866       865       867       866       865       868       866       869       875
       866       869       876       867       865       868       867       871       876
       867       871       877       867       872       878       867       872       879
       868       873       879       868       873       880       869       866       870
       869       875       881       869       875       882       869       876       871
       869       876       883       871       867       872       871       876       883
       872       879       873       872       879       884       873       868       874
       873       879       884       873       880       885       873       880       886
       875       869       876       875       881       887       875       881       888
       876       871       877       876       883       887       876       883       889
       878       872       879       879       873       880       879       884       890
       879       884       891       880       885       891       880       885       892
       881       875       882       881       887       883       881       887       893
       883       887       893       884       891       885       884       891       894
       885       880       886       885       891       894       885       892       895
       885       892       896       887       881       888       887       883       889
       890       884       891       891       885       892       891       894       897
       891       894       898       892       895       897       892       895       899
       894       897       895       894       897       900       895       892       896
       895       897       900       897       894       898       897       895       899
       901       902       905       901       902       906       901       903       907
       901       903       908       901       904       909       901       904       910
       902       901       903       902       901       904       902       905       911
       902       905       912       903       901       904       903       907       912
       903       907       913       903       908       914       903       908       915
       904       909       915       904       909       916       905       902       906
       905       911       917       905       911       918       905       912       907
       905       912       919       907       903       908       907       912       919
       908       915       909       908       915       920       909       904       910
       909       915       920       909       916       921       909       916       922
       911       905       912       911       917       923       911       917       924
       912       907       913       912       919       923       912       919       925
       914       908       915       915       909       916       915       920       926
       915       920       927       916       921       927       916       921       928
       917       911       918       917       923       919       917       923       929
       919       923       929       920       927       921       920       927       930
       921       916       922       921       927       930       921       928       931
       921       928       932       923       917       924       923       919       925
       926       920       927       927       921       928       927       930       933
       927       930       934       928       931       933       928       931       935
       930       933       931       930       933       936       931       928       932
       931       933       936       933       930       934       933       931       935
       937       938       941       937       938       942       937       939       943
       937       939       944       937       940       945       937       940       946
       938       937       939       938       937       940       938       941       947
       938       941       948       939       937       940       939       943       948
       939       943       949       939       944       950       939       944       951
       940       945       951       940       945       952       941       938       942
       941       947       953       941       947       954       941       948       943
       941       948       955       943       939       944       943       948       955
       944       951       945       944       951       956       945       940       946
       945       951       956       945       952       957       945       952       958
       947       941       948       947       953       959       947       953       960
       948       943       949       948       955       959       948       955       961
       950       944       951       951       945       952       951       956       962
       951       956       963       952       957       963       952       957       964
       953       947       954       953       959       955       953       959       965
       955       959       965       956       963       957       956       963       966
       957       952       958       957       963       966       957       964       967
       957       964       968       959       953       960       959       955       961
       962       956       963       963       957       964       963       966       969
       963       966       970       964       967       969       964       967       971
       966       969       967       966       969       972       967       964       968
       967       969       972       969       966       970       969       967       971
       973       974       977       973       974       978       973       975       979
       973       975       980       973       976       981       973       976       982
       974       973       975       974       973       976       974       977       983
       974       977       984       975       973       976       975       979       984
       975       979       985       975       980       986       975       980       987
       976       981       987       976       981       988       977       974       978
       977       983       989       977       983       990       977       984       979
       977       984       991       979       975       980       979       984       991
       980       987       981       980       987       992       981       976       982
       981       987       992       981       988       993       981       988       994
       983       977       984       983       989       995       983       989       996
       984       979       985       984       991       995       984       991       997
       986       980       987       987       981       988       987       992       998
       987       992       999       988       993       999       988       993      1000
       989       983       990       989       995       991       989       995      1001
       991       995      1001       992       999       993       992       999      1002
       993       988       994       993       999      1002       993      1000      1003
       993      1000      1004       995       989       996       995       991       997
       998       992       999       999       993      1000       999      1002      1005
       999      1002      1006      1000      1003      1005      1000      1003      1007
      1002      1005      1003      1002      1005      1008      1003      1000      1004
      1003      1005      1008      1005      1002      1006      1005      1003      1007
      1009      1010      1013      1009      1010      1014      1009      1011      1015
      1009      1011      1016      1009      1012      1017      1009      1012      1018
      1010      1009      1011      1010      1009      1012      1010      1013      1019
      1010      1013      1020      1011      1009      1012      1011      1015      1020
      1011      1015      1021      1011      1016      1022      1011      1016      1023
      1012      1017      1023      1012      1017      1024      1013      1010      1014
      1013      1019      1025      1013      1019      1026      1013      1020      1015
      1013      1020      1027      1015      1011      1016      1015      1020      1027
      1016      1023      1017      1016      1023      1028      1017      1012      1018
      1017      1023      1028      1017      1024      1029      1017      1024      1030
      1019      1013      1020      1019      1025      1031      1019      1025      1032
      1020      1015      1021      1020      1027      1031      1020      1027      1033
      1022      1016      1023      1023      1017      1024      1023      1028      1034
      1023      1028      1035      1024      1029      1035      1024      1029      1036
      1025      1019      1026      1025      1031      1027      1025      1031      1037
      1027      1031      1037      1028      1035      1029      1028      1035      1038
      1029      1024      1030      1029      1035      1038      1029      1036      1039
      1029      1036      1040      1031      1025      1032      1031      1027      1033
      1034      1028      1035      1035      1029      1036      1035      1038      1041
      1035      1038      1042      1036      1039      1041      1036      1039      1043
      1038      1041      1039      1038      1041      1044      1039      1036      1040
      1039      1041      1044      1041      1038      1042      1041      1039      1043
      1045      1046      1049      1045      1046      1050      1045      1047      1051
      1045      1047      1052      1045      1048      1053      1045      1048      1054
      1046      1045      1047      1046      1045      1048      1046      1049      1055
      1046      1049      1056      1047      1045      1048      1047      1051      1056
      1047      1051      1057      1047      1052      1058      1047      1052      1059
      1048      1053      1059      1048      1053      1060      1049      1046      1050
      1049      1055      1061      1049      1055      1062      1049      1056      1051
      1049      1056      1063      1051      1047      1052      1051      1056      1063
      1052      1059      1053      1052      1059      1064      1053      1048      1054
      1053      1059      1064      1053      1060      1065      1053      1060      1066
      1055      1049      1056      1055      1061      1067      1055      1061      1068
      1056      1051      1057      1056      1063      1067      1056      1063      1069
      1058      1052      1059      1059      1053      1060      1059      1064      1070
      1059      1064      1071      1060      1065      1071      1060      1065      1072
      1061      1055      1062      1061      1067      1063      1061      1067      1073
      1063      1067      1073      1064      1071      1065      1064      1071      1074
      1065      1060      1066      1065      1071      1074      1065      1072      1075
      1065      1072      1076      1067      1061      1068      1067      1063      1069
      1070      1064      1071      1071      1065      1072      1071      1074      1077
      1071      1074      1078      1072      1075      1077      1072      1075      1079
      1074      1077      1075      1074      1077      1080      1075      1072      1076
      1075      1077      1080      1077      1074      1078      1077      1075      1079
      1081      1082      1085      1081      1082      1086      1081      1083      1087
      1081      1083      1088      1081      1084      1089      1081      1084      1090
      1082      1081      1083      1082      1081      1084      1082      1085      1091
      1082      1085      1092      1083      1081      1084      1083      1087      1092
      1083      1087      1093      1083      1088      1094      1083      1088      1095
      1084      1089      1095      1084      1089      1096      1085      1082      1086
      1085      1091      1097      1085      1091      1098      1085      1092      1087
      1085      1092      1099      1087      1083      1088      1087      1092      1099
      1088      1095      1089      1088      1095      1100      1089      1084      1090
      1089      1095      1100      1089      1096      1101      1089      1096      1102
      1091      1085      1092      1091      1097      1103      1091      1097      1104
      1092      1087      1093      1092      1099      1103      1092      1099      1105
      1094      1088      1095      1095      1089      1096      1095      1100      1106
      1095      1100      1107      1096      1101      1107      1096      1101      1108
      1097      1091      1098      1097      1103      1099      1097      1103      1109
      1099      1103      1109      1100      1107      1101      1100      1107      1110
      1101      1096      1102      1101      1107      1110      1101      1108      1111
      1101      1108      1112      1103      1097      1104      1103      1099      1105
      1106      1100      1107      1107      1101      1108      1107      1110      1113
      1107      1110      1114      1108      1111      1113      1108      1111      1115
      1110      1113      1111      1110      1113      1116      1111      1108      1112
      1111      1113      1116      1113      1110      1114      1113      1111      1115
      1117      1118      1121      1117      1118      1122      1117      1119      1123
      1117      1119      1124      1117      1120      1125      1117      1120      1126
      1118      1117      1119      1118      1117      1120      1118      1121      1127
      1118      1121      1128      1119      1117      1120      1119      1123      1128
      1119      1123      1129      1119      1124      1130      1119      1124      1131
      1120      1125      1131      1120      1125      1132      1121      1118      1122
      1121      1127      1133      1121      1127      1134      1121      1128      1123
      1121      1128      1135      1123      1119      1124      1123      1128      1135
      1124      1131      1125      1124      1131      1136      1125      1120      1126
      1125      1131      1136      1125      1132      1137      1125      1132      1138
      1127      1121      1128      1127      1133      1139      1127      1133      1140
      1128      1123      1129      1128      1135      1139      1128      1135      1141
      1130      1124      1131      1131      1125      1132      1131      1136      1142
      1131      1136      1143      1132      1137      1143      1132      1137      1144
      1133      1127      1134      1133      1139      1135      1133      1139      1145
      1135      1139      1145      1136      1143      1137      1136      1143      1146
      1137      1132      1138      1137      1143      1146      1137      1144      1147
      1137      1144      1148      1139      1133      1140      1139      1135      1141
      1142      1136      1143      1143      1137      1144      1143      1146      1149
      1143      1146      1150      1144      1147      1149      1144      1147      1151
      1146      1149      1147      1146      1149      1152      1147      1144      1148
      1147      1149      1152      1149      1146      1150      1149      1147      1151
      1153      1154      1157      1153      1154      1158      1153      1155      1159
      1153      1155      1160      1153      1156      1161      1153      1156      1162
      1154      1153      1155      1154      1153      1156      1154      1157      1163
      1154      1157      1164      1155      1153      1156      1155      1159      1164
      1155      1159      1165      1155      1160      1166      1155      1160      1167
      1156      1161      1167      1156      1161      1168      1157      1154      1158
      1157      1163      1169      1157      1163      1170      1157      1164      1159
      1157      1164      1171      1159      1155      1160      1159      1164      1171
      1160      1167      1161      1160      1167      1172      1161      1156      1162
      1161      1167      1172      1161      1168      1173      1161      1168      1174
      1163      1157      1164      1163      1169      1175      1163      1169      1176
      1164      1159      1165      1164      1171      1175      1164      1171      1177
      1166      1160      1167      1167      1161      1168      1167      1172      1178
      1167      1172      1179      1168      1173      1179      1168      1173      1180
      1169      1163      1170      1169      1175      1171      1169      1175      1181
      1171      1175      1181      1172      1179      1173      1172      1179      1182
      1173      1168      1174      1173      1179      1182      1173      1180      1183
      1173      1180      1184      1175      1169      1176      1175      1171      1177
      1178      1172      1179      1179      1173      1180      1179      1182      1185
      1179      1182      1186      1180      1183      1185      1180      1183      1187
      1182      1185      1183      1182      1185      1188      1183      1180      1184
      1183      1185      1188      1185      1182      1186      1185      1183      1187
      1189      1190      1193      1189      1190      1194      1189      1191      1195
      1189      1191      1196      1189      1192      1197      1189      1192      1198
      1190      1189      1191      1190      1189      1192      1190      1193      1199
      1190      1193      1200      1191      1189      1192      1191      1195      1200
      1191      1195      1201      1191      1196      1202      1191      1196      1203
      1192      1197      1203      1192      1197      1204      1193      1190      1194
      1193      1199      1205      1193      1199      1206      1193      1200      1195
      1193      1200      1207      1195      1191      1196      1195      1200      1207
      1196      1203      1197      1196      1203      1208      1197      1192      1198
      1197      1203      1208      1197      1204      1209      1197      1204      1210
      1199      1193      1200      1199      1205      1211      1199      1205      1212
      1200      1195      1201      1200      1207      1211      1200      1207      1213
      1202      1196      1203      1203      1197      1204      1203      1208      1214
      1203      1208      1215      1204      1209      1215      1204      1209      1216
      1205      1199      1206      1205      1211      1207      1205      1211      1217
      1207      1211      1217      1208      1215      1209      1208      1215      1218
      1209      1204      1210      1209      1215      1218      1209      1216      1219
      1209      1216      1220      1211      1205      1212      1211      1207      1213
      1214      1208      1215      1215      1209      1216      1215      1218      1221
      1215      1218      1222      1216      1219      1221      1216      1219      1223
      1218      1221      1219      1218      1221      1224      1219      1216      1220
      1219      1221      1224      1221      1218      1222      1221      1219      1223
      1225      1226      1229      1225      1226      1230      1225      1227      1231
      1225      1227      1232      1225      1228      1233      1225      1228      1234
      1226      1225      1227      1226      1225      1228      1226      1229      1235
      1226      1229      1236      1227      1225      1228      1227      1231      1236
      1227      1231      1237      1227      1232      1238      1227      1232      1239
      1228      1233      1239      1228      1233      1240      1229      1226      1230
      1229      1235      1241      1229      1235      1242      1229      1236      1231
      1229      1236      1243      1231      1227      1232      1231      1236      1243
      1232      1239      1233      1232      1239      1244      1233      1228      1234
      1233      1239      1244      1233      1240      1245      1233      1240      1246
      1235      1229      1236      1235      1241      1247      1235      1241      1248
      1236      1231      1237      1236      1243      1247      1236      1243      1249
      1238      1232      1239      1239      1233      1240      1239      1244      1250
      1239      1244      1251      1240      1245      1251      1240      1245      1252
      1241      1235      1242      1241      1247      1243      1241      1247      1253
      1243      1247      1253      1244      1251      1245      1244      1251      1254
      1245      1240      1246      1245      1251      1254      1245      1252      1255
      1245      1252      1256      1247      1241      1248      1247      1243      1249
      1250      1244      1251      1251      1245      1252      1251      1254      1257
      1251      1254      1258      1252      1255      1257      1252      1255      1259
      1254      1257      1255      1254      1257      1260      1255      1252      1256
      1255      1257      1260      1257      1254      1258      1257      1255      1259
      1261      1262      1265      1261      1262      1266      1261      1263      1267
      1261      1263      1268      1261      1264      1269      1261      1264      1270
      1262      1261      1263      1262      1261      1264      1262      1265      1271
      1262      1265      1272      1263      1261      1264      1263      1267      1272
      1263      1267      1273      1263      1268      1274      1263      1268      1275
      1264      1269      1275      1264      1269      1276      1265      1262      1266
      1265      1271      1277      1265      1271      1278      1265      1272      1267
      1265      1272      1279      1267      1263      1268      1267      1272      1279
      1268      1275      1269      1268      1275      1280      1269      1264      1270
      1269      1275      1280      1269      1276      1281      1269      1276      1282
      1271      1265      1272      1271      1277      1283      1271      1277      1284
      1272      1267      1273      1272      1279      1283      1272      1279      1285
      1274      1268      1275      1275      1269      1276      1275      1280      1286
      1275      1280      1287      1276      1281      1287      1276      1281      1288
      1277      1271      1278      1277      1283      1279      1277      1283      1289
      1279      1283      1289      1280      1287      1281      1280      1287      1290
      1281      1276      1282      1281      1287      1290      1281      1288      1291
      1281      1288      1292      1283      1277      1284      1283      1279      1285
      1286      1280      1287      1287      1281      1288      1287      1290      1293
      1287      1290      1294      1288      1291      1293      1288      1291      1295
      1290      1293      1291      1290      1293      1296      1291      1288      1292
      1291      1293      1296      1293      1290      1294      1293      1291      1295
      1297      1298      1301      1297      1298      1302      1297      1299      1303
      1297      1299      1304      1297      1300      1305      1297      1300      1306
      1298      1297      1299      1298      1297      1300      1298      1301      1307
      1298      1301      1308      1299      1297      1300      1299      1303      1308
      1299      1303      1309      1299      1304      1310      1299      1304      1311
      1300      1305      1311      1300      1305      1312      1301      1298      1302
      1301      1307      1313      1301      1307      1314      1301      1308      1303
      1301      1308      1315      1303      1299      1304      1303      1308      1315
      1304      1311      1305      1304      1311      1316      1305      1300      1306
      1305      1311      1316      1305      1312      1317      1305      1312      1318
      1307      1301      1308      1307      1313      1319      1307      1313      1320
      1308      1303      1309      1308      1315      1319      1308      1315      1321
      1310      1304      1311      1311      1305      1312      1311      1316      1322
      1311      1316      1323      1312      1317      1323      1312      1317      1324
      1313      1307      1314      1313      1319      1315      1313      1319      1325
      1315      1319      1325      1316      1323      1317      1316      1323      1326
      1317      1312      1318      1317      1323      1326      1317      1324      1327
      1317      1324      1328      1319      1313      1320      1319      1315      1321
      1322      1316      1323      1323      1317      1324      1323      1326      1329
      1323      1326      1330      1324      1327      1329      1324      1327      1331
      1326      1329      1327      1326      1329      1332      1327      1324      1328
      1327      1329      1332      1329      1326      1330      1329      1327      1331
      1333      1334      1337      1333      1334      1338      1333      1335      1339
      1333      1335      1340      1333      1336      1341      1333      1336      1342
      1334      1333      1335      1334      1333      1336      1334      1337      1343
      1334      1337      1344      1335      1333      1336      1335      1339      1344
      1335      1339      1345      1335      1340      1346      1335      1340      1347
      1336      1341      1347      1336      1341      1348      1337      1334      1338
      1337      1343      1349      1337      1343      1350      1337      1344      1339
      1337      1344      1351      1339      1335      1340      1339      1344      1351
      1340      1347      1341      1340      1347      1352      1341      1336      1342
      1341      1347      1352      1341      1348      1353      1341      1348      1354
      1343      1337      1344      1343      1349      1355      1343      1349      1356
      1344      1339      1345      1344      1351      1355      1344      1351      1357
      1346      1340      1347      1347      1341      1348      1347      1352      1358
      1347      1352      1359      1348      1353      1359      1348      1353      1360
      1349      1343      1350      1349      1355      1351      1349      1355      1361
      1351      1355      1361      1352      1359      1353      1352      1359      1362
      1353      1348      1354      1353      1359      1362      1353      1360      1363
      1353      1360      1364      1355      1349      1356      1355      1351      1357
      1358      1352      1359      1359      1353      1360      1359      1362      1365
      1359      1362      1366      1360      1363      1365      1360      1363      1367
      1362      1365      1363      1362      1365      1368      1363      1360      1364
      1363      1365      1368      1365      1362      1366      1365      1363      1367
      1369      1370      1373      1369      1370      1374      1369      1371      1375
      1369      1371      1376      1369      1372      1377      1369      1372      1378
      1370      1369      1371      1370      1369      1372      1370      1373      1379
      1370      1373      1380      1371      1369      1372      1371      1375      1380
      1371      1375      1381      1371      1376      1382      1371      1376      1383
      1372      1377      1383      1372      1377      1384      1373      1370      1374
      1373      1379      1385      1373      1379      1386      1373      1380      1375
      1373      1380      1387      1375      1371      1376      1375      1380      1387
      1376      1383      1377      1376      1383      1388      1377      1372      1378
      1377      1383      1388      1377      1384      1389      1377      1384      1390
      1379      1373      1380      1379      1385      1391      1379      1385      1392
      1380      1375      1381      1380      1387      1391      1380      1387      1393
      1382      1376      1383      1383      1377      1384      1383      1388      1394
      1383      1388      1395      1384      1389      1395      1384      1389      1396
      1385      1379      1386      1385      1391      1387      1385      1391      1397
      1387      1391      1397      1388      1395      1389      1388      1395      1398
      1389      1384      1390      1389      1395      1398      1389      1396      1399
      1389      1396      1400      1391      1385      1392      1391      1387      1393
      1394      1388      1395      1395      1389      1396      1395      1398      1401
      1395      1398      1402      1396      1399      1401      1396      1399      1403
      1398      1401      1399      1398      1401      1404      1399      1396      1400
      1399      1401      1404      1401      1398      1402      1401      1399      1403
      1405      1406      1409      1405      1406      1410      1405      1407      1411
      1405      1407      1412      1405      1408      1413      1405      1408      1414
      1406      1405      1407      1406      1405      1408      1406      1409      1415
      1406      1409      1416      1407      1405      1408      1407      1411      1416
      1407      1411      1417      1407      1412      1418      1407      1412      1419
      1408      1413      1419      1408      1413      1420      1409      1406      1410
      1409      1415      1421      1409      1415      1422      1409      1416      1411
      1409      1416      1423      1411      1407      1412      1411      1416      1423
      1412      1419      1413      1412      1419      1424      1413      1408      1414
      1413      1419      1424      1413      1420      1425      1413      1420      1426
      1415      1409      1416      1415      1421      1427      1415      1421      1428
      1416      1411      1417      1416      1423      1427      1416      1423      1429
      1418      1412      1419      1419      1413      1420      1419      1424      1430
      1419      1424      1431      1420      1425      1431      1420      1425      1432
      1421      1415      1422      1421      1427      1423      1421      1427      1433
      1423      1427      1433      1424      1431      1425      1424      1431      1434
      1425      1420      1426      1425      1431      1434      1425      1432      1435
      1425      1432      1436      1427      1421      1428      1427      1423      1429
      1430      1424      1431      1431      1425      1432      1431      1434      1437
      1431      1434      1438      1432      1435      1437      1432      1435      1439
      1434      1437      1435      1434      1437      1440      1435      1432      1436
      1435      1437      1440      1437      1434      1438      1437      1435      1439
      1441      1442      1445      1441      1442      1446      1441      1443      1447
      1441      1443      1448      1441      1444      1449      1441      1444      1450
      1442      1441      1443      1442      1441      1444      1442      1445      1451
      1442      1445      1452      1443      1441      1444      1443      1447      1452
      1443      1447      1453      1443      1448      1454      1443      1448      1455
      1444      1449      1455      1444      1449      1456      1445      1442      1446
      1445      1451      1457      1445      1451      1458      1445      1452      1447
      1445      1452      1459      1447      1443      1448      1447      1452      1459
      1448      1455      1449      1448      1455      1460      1449      1444      1450
      1449      1455      1460      1449      1456      1461      1449      1456      1462
      1451      1445      1452      1451      1457      1463      1451      1457      1464
      1452      1447      1453      1452      1459      1463      1452      1459      1465
      1454      1448      1455      1455      1449      1456      1455      1460      1466
      1455      1460      1467      1456      1461      1467      1456      1461      1468
      1457      1451      1458      1457      1463      1459      1457      1463      1469
      1459      1463      1469      1460      1467      1461      1460      1467      1470
      1461      1456      1462      1461      1467      1470      1461      1468      1471
      1461      1468      1472      1463      1457      1464      1463      1459      1465
      1466      1460      1467      1467      1461      1468      1467      1470      1473
      1467      1470      1474      1468      1471      1473      1468      1471      1475
      1470      1473      1471      1470      1473      1476      1471      1468      1472
      1471      1473      1476      1473      1470      1474      1473      1471      1475
      1477      1478      1481      1477      1478      1482      1477      1479      1483
      1477      1479      1484      1477      1480      1485      1477      1480      1486
      1478      1477      1479      1478      1477      1480      1478      1481      1487
      1478      1481      1488      1479      1477      1480      1479      1483      1488
      1479      1483      1489      1479      1484      1490      1479      1484      1491
      1480      1485      1491      1480      1485      1492      1481      1478      1482
      1481      1487      1493      1481      1487      1494      1481      1488      1483
      1481      1488      1495      1483      1479      1484      1483      1488      1495
      1484      1491      1485      1484      1491      1496      1485      1480      1486
      1485      1491      1496      1485      1492      1497      1485      1492      1498
      1487      1481      1488      1487      1493      1499      1487      1493      1500
      1488      1483      1489      1488      1495      1499      1488      1495      1501
      1490      1484      1491      1491      1485      1492      1491      1496      1502
      1491      1496      1503      1492      1497      1503      1492      1497      1504
      1493      1487      1494      1493      1499      1495      1493      1499      1505
      1495      1499      1505      1496      1503      1497      1496      1503      1506
      1497      1492      1498      1497      1503      1506      1497      1504      1507
      1497      1504      1508      1499      1493      1500      1499      1495      1501
      1502      1496      1503      1503      1497      1504      1503      1506      1509
      1503      1506      1510      1504      1507      1509      1504      1507      1511
      1506      1509      1507      1506      1509      1512      1507      1504      1508
      1507      1509      1512      1509      1506      1510      1509      1507      1511
      1513      1514      1517      1513      1514      1518      1513      1515      1519
      1513      1515      1520      1513      1516      1521      1513      1516      1522
      1514      1513      1515      1514      1513      1516      1514      1517      1523
      1514      1517      1524      1515      1513      1516      1515      1519      1524
      1515      1519      1525      1515      1520      1526      1515      1520      1527
      1516      1521      1527      1516      1521      1528      1517      1514      1518
      1517      1523      1529      1517      1523      1530      1517      1524      1519
      1517      1524      1531      1519      1515      1520      1519      1524      1531
      1520      1527      1521      1520      1527      1532      1521      1516      1522
      1521      1527      1532      1521      1528      1533      1521      1528      1534
      1523      1517      1524      1523      1529      1535      1523      1529      1536
      1524      1519      1525      1524      1531      1535      1524      1531      1537
      1526      1520      1527      1527      1521      1528      1527      1532      1538
      1527      1532      1539      1528      1533      1539      1528      1533      1540
      1529      1523      1530      1529      1535      1531      1529      1535      1541
      1531      1535      1541      1532      1539      1533      1532      1539      1542
      1533      1528      1534      1533      1539      1542      1533      1540      1543
      1533      1540      1544      1535      1529      1536      1535      1531      1537
      1538      1532      1539      1539      1533      1540      1539      1542      1545
      1539      1542      1546      1540      1543      1545      1540      1543      1547
      1542      1545      1543      1542      1545      1548      1543      1540      1544
      1543      1545      1548      1545      1542      1546      1545      1543      1547
      1549      1550      1553      1549      1550      1554      1549      1551      1555
      1549      1551      1556      1549      1552      1557      1549      1552      1558
      1550      1549      1551      1550      1549      1552      1550      1553      1559
      1550      1553      1560      1551      1549      1552      1551      1555      1560
      1551      1555      1561      1551      1556      1562      1551      1556      1563
      1552      1557      1563      1552      1557      1564      1553      1550      1554
      1553      1559      1565      1553      1559      1566      1553      1560      1555
      1553      1560      1567      1555      1551      1556      1555      1560      1567
      1556      1563      1557      1556      1563      1568      1557      1552      1558
      1557      1563      1568      1557      1564      1569      1557      1564      1570
      1559      1553      1560      1559      1565      1571      1559      1565      1572
      1560      1555      1561      1560      1567      1571      1560      1567      1573
      1562      1556      1563      1563      1557      1564      1563      1568      1574
      1563      1568      1575      1564      1569      1575      1564      1569      1576
      1565      1559      1566      1565      1571      1567      1565      1571      1577
      1567      1571      1577      1568      1575      1569      1568      1575      1578
      1569      1564      1570      1569      1575      1578      1569      1576      1579
      1569      1576      1580      1571      1565      1572      1571      1567      1573
      1574      1568      1575      1575      1569      1576      1575      1578      1581
      1575      1578      1582      1576      1579      1581      1576      1579      1583
      1578      1581      1579      1578      1581      1584      1579      1576      1580
      1579      1581      1584      1581      1578      1582      1581      1579      1583
      1585      1586      1589      1585      1586      1590      1585      1587      1591
      1585      1587      1592      1585      1588      1593      1585      1588      1594
      1586      1585      1587      1586      1585      1588      1586      1589      1595
      1586      1589      1596      1587      1585      1588      1587      1591      1596
      1587      1591      1597      1587      1592      1598      1587      1592      1599
      1588      1593      1599      1588      1593      1600      1589      1586      1590
      1589      1595      1601      1589      1595      1602      1589      1596      1591
      1589      1596      1603      1591      1587      1592      1591      1596      1603
      1592      1599      1593      1592      1599      1604      1593      1588      1594
      1593      1599      1604      1593      1600      1605      1593      1600      1606
      1595      1589      1596      1595      1601      1607      1595      1601      1608
      1596      1591      1597      1596      1603      1607      1596      1603      1609
      1598      1592      1599      1599      1593      1600      1599      1604      1610
      1599      1604      1611      1600      1605      1611      1600      1605      1612
      1601      1595      1602      1601      1607      1603      1601      1607      1613
      1603      1607      1613      1604      1611      1605      1604      1611      1614
      1605      1600      1606      1605      1611      1614      1605      1612      1615
      1605      1612      1616      1607      1601      1608      1607      1603      1609
      1610      1604      1611      1611      1605      1612      1611      1614      1617
      1611      1614      1618      1612      1615      1617      1612      1615      1619
      1614      1617      1615      1614      1617      1620      1615      1612      1616
      1615      1617      1620      1617      1614      1618      1617      1615      1619
      1621      1622      1625      1621      1622      1626      1621      1623      1627
      1621      1623      1628      1621      1624      1629      1621      1624      1630
      1622      1621      1623      1622      1621      1624      1622      1625      1631
      1622      1625      1632      1623      1621      1624      1623      1627      1632
      1623      1627      1633      1623      1628      1634      1623      1628      1635
      1624      1629      1635      1624      1629      1636      1625      1622      1626
      1625      1631      1637      1625      1631      1638      1625      1632      1627
      1625      1632      1639      1627      1623      1628      1627      1632      1639
      1628      1635      1629      1628      1635      1640      1629      1624      1630
      1629      1635      1640      1629      1636      1641      1629      1636      1642
      1631      1625      1632      1631      1637      1643      1631      1637      1644
      1632      1627      1633      1632      1639      1643      1632      1639      1645
      1634      1628      1635      1635      1629      1636      1635      1640      1646
      1635      1640      1647      1636      1641      1647      1636      1641      1648
      1637      1631      1638      1637      1643      1639      1637      1643      1649
      1639      1643      1649      1640      1647      1641      1640      1647      1650
      1641      1636      1642      1641      1647      1650      1641      1648      1651
      1641      1648      1652      1643      1637      1644      1643      1639      1645
      1646      1640      1647      1647      1641      1648      1647      1650      1653
      1647      1650      1654      1648      1651      1653      1648      1651      1655
      1650      1653      1651      1650      1653      1656      1651      1648      1652
      1651      1653      1656      1653      1650      1654      1653      1651      1655
      1657      1658      1661      1657      1658      1662      1657      1659      1663
      1657      1659      1664      1657      1660      1665      1657      1660      1666
      1658      1657      1659      1658      1657      1660      1658      1661      1667
      1658      1661      1668      1659      1657      1660      1659      1663      1668
      1659      1663      1669      1659      1664      1670      1659      1664      1671
      1660      1665      1671      1660      1665      1672      1661      1658      1662
      1661      1667      1673      1661      1667      1674      1661      1668      1663
      1661      1668      1675      1663      1659      1664      1663      1668      1675
      1664      1671      1665      1664      1671      1676      1665      1660      1666
      1665      1671      1676      1665      1672      1677      1665      1672      1678
      1667      1661      1668      1667      1673      1679      1667      1673      1680
      1668      1663      1669      1668      1675      1679      1668      1675      1681
      1670      1664      1671      1671      1665      1672      1671      1676      1682
      1671      1676      1683      1672      1677      1683      1672      1677      1684
      1673      1667      1674      1673      1679      1675      1673      1679      1685
      1675      1679      1685      1676      1683      1677      1676      1683      1686
      1677      1672      1678      1677      1683      1686      1677      1684      1687
      1677      1684      1688      1679      1673      1680      1679      1675      1681
      1682      1676      1683      1683      1677      1684      1683      1686      1689
      1683      1686      1690      1684      1687      1689      1684      1687      1691
      1686      1689      1687      1686      1689      1692      1687      1684      1688
      1687      1689      1692      1689      1686      1690      1689      1687      1691
      1693      1694      1697      1693      1694      1698      1693      1695      1699
      1693      1695      1700      1693      1696      1701      1693      1696      1702
      1694      1693      1695      1694      1693      1696      1694      1697      1703
      1694      1697      1704      1695      1693      1696      1695      1699      1704
      1695      1699      1705      1695      1700      1706      1695      1700      1707
      1696      1701      1707      1696      1701      1708      1697      1694      1698
      1697      1703      1709      1697      1703      1710      1697      1704      1699
      1697      1704      1711      1699      1695      1700      1699      1704      1711
      1700      1707      1701      1700      1707      1712      1701      1696      1702
      1701      1707      1712      1701      1708      1713      1701      1708      1714
      1703      1697      1704      1703      1709      1715      1703      1709      1716
      1704      1699      1705      1704      1711      1715      1704      1711      1717
      1706      1700      1707      1707      1701      1708      1707      1712      1718
      1707      1712      1719      1708      1713      1719      1708      1713      1720
      1709      1703      1710      1709      1715      1711      1709      1715      1721
      1711      1715      1721      1712      1719      1713      1712      1719      1722
      1713      1708      1714      1713      1719      1722      1713      1720      1723
      1713      1720      1724      1715      1709      1716      1715      1711      1717
      1718      1712      1719      1719      1713      1720      1719      1722      1725
      1719      1722      1726      1720      1723      1725      1720      1723      1727
      1722      1725      1723      1722      1725      1728      1723      1720      1724
      1723      1725      1728      1725      1722      1726      1725      1723      1727
      1729      1730      1733      1729      1730      1734      1729      1731      1735
      1729      1731      1736      1729      1732      1737      1729      1732      1738
      1730      1729      1731      1730      1729      1732      1730      1733      1739
      1730      1733      1740      1731      1729      1732      1731      1735      1740
      1731      1735      1741      1731      1736      1742      1731      1736      1743
      1732      1737      1743      1732      1737      1744      1733      1730      1734
      1733      1739      1745      1733      1739      1746      1733      1740      1735
      1733      1740      1747      1735      1731      1736      1735      1740      1747
      1736      1743      1737      1736      1743      1748      1737      1732      1738
      1737      1743      1748      1737      1744      1749      1737      1744      1750
      1739      1733      1740      1739      1745      1751      1739      1745      1752
      1740      1735      1741      1740      1747      1751      1740      1747      1753
      1742      1736      1743      1743      1737      1744      1743      1748      1754
      1743      1748      1755      1744      1749      1755      1744      1749      1756
      1745      1739      1746      1745      1751      1747      1745      1751      1757
      1747      1751      1757      1748      1755      1749      1748      1755      1758
      1749      1744      1750      1749      1755      1758      1749      1756      1759
      1749      1756      1760      1751      1745      1752      1751      1747      1753
      1754      1748      1755      1755      1749      1756      1755      1758      1761
      1755      1758      1762      1756      1759      1761      1756      1759      1763
      1758      1761      1759      1758      1761      1764      1759      1756      1760
      1759      1761      1764      1761      1758      1762      1761      1759      1763
      1765      1766      1769      1765      1766      1770      1765      1767      1771
      1765      1767      1772      1765      1768      1773      1765      1768      1774
      1766      1765      1767      1766      1765      1768      1766      1769      1775
      1766      1769      1776      1767      1765      1768      1767      1771      1776
      1767      1771      1777      1767      1772      1778      1767      1772      1779
      1768      1773      1779      1768      1773      1780      1769      1766      1770
      1769      1775      1781      1769      1775      1782      1769      1776      1771
      1769      1776      1783      1771      1767      1772      1771      1776      1783
      1772      1779      1773      1772      1779      1784      1773      1768      1774
      1773      1779      1784      1773      1780      1785      1773      1780      1786
      1775      1769      1776      1775      1781      1787      1775      1781      1788
      1776      1771      1777      1776      1783      1787      1776      1783      1789
      1778      1772      1779      1779      1773      1780      1779      1784      1790
      1779      1784      1791      1780      1785      1791      1780      1785      1792
      1781      1775      1782      1781      1787      1783      1781      1787      1793
      1783      1787      1793      1784      1791      1785      1784      1791      1794
      1785      1780      1786      1785      1791      1794      1785      1792      1795
      1785      1792      1796      1787      1781      1788      1787      1783      1789
      1790      1784      1791      1791      1785      1792      1791      1794      1797
      1791      1794      1798      1792      1795      1797      1792      1795      1799
      1794      1797      1795      1794      1797      1800      1795      1792      1796
      1795      1797      1800      1797      1794      1798      1797      1795      1799
      1801      1802      1805      1801      1802      1806      1801      1803      1807
      1801      1803      1808      1801      1804      1809      1801      1804      1810
      1802      1801      1803      1802      1801      1804      1802      1805      1811
      1802      1805      1812      1803      1801      1804      1803      1807      1812
      1803      1807      1813      1803      1808      1814      1803      1808      1815
      1804      1809      1815      1804      1809      1816      1805      1802      1806
      1805      1811      1817      1805      1811      1818      1805      1812      1807
      1805      1812      1819      1807      1803      1808      1807      1812      1819
      1808      1815      1809      1808      1815      1820      1809      1804      1810
      1809      1815      1820      1809      1816      1821      1809      1816      1822
      1811      1805      1812      1811      1817      1823      1811      1817      1824
      1812      1807      1813      1812      1819      1823      1812      1819      1825
      1814      1808      1815      1815      1809      1816      1815      1820      1826
      1815      1820      1827      1816      1821      1827      1816      1821      1828
      1817      1811      1818      1817      1823      1819      1817      1823      1829
      1819      1823      1829      1820      1827      1821      1820      1827      1830
      1821      1816      1822      1821      1827      1830      1821      1828      1831
      1821      1828      1832      1823      1817      1824      1823      1819      1825
      1826      1820      1827      1827      1821      1828      1827      1830      1833
      1827      1830      1834      1828      1831      1833      1828      1831      1835
      1830      1833      1831      1830      1833      1836      1831      1828      1832
      1831      1833      1836      1833      1830      1834      1833      1831      1835
      1837      1838      1841      1837      1838      1842      1837      1839      1843
      1837      1839      1844      1837      1840      1845      1837      1840      1846
      1838      1837      1839      1838      1837      1840      1838      1841      1847
      1838      1841      1848      1839      1837      1840      1839      1843      1848
      1839      1843      1849      1839      1844      1850      1839      1844      1851
      1840      1845      1851      1840      1845      1852      1841      1838      1842
      1841      1847      1853      1841      1847      1854      1841      1848      1843
      1841      1848      1855      1843      1839      1844      1843      1848      1855
      1844      1851      1845      1844      1851      1856      1845      1840      1846
      1845      1851      1856      1845      1852      1857      1845      1852      1858
      1847      1841      1848      1847      1853      1859      1847      1853      1860
      1848      1843      1849      1848      1855      1859      1848      1855      1861
      1850      1844      1851      1851      1845      1852      1851      1856      1862
      1851      1856      1863      1852      1857      1863      1852      1857      1864
      1853      1847      1854      1853      1859      1855      1853      1859      1865
      1855      1859      1865      1856      1863      1857      1856      1863      1866
      1857      1852      1858      1857      1863      1866      1857      1864      1867
      1857      1864      1868      1859      1853      1860      1859      1855      1861
      1862      1856      1863      1863      1857      1864      1863      1866      1869
      1863      1866      1870      1864      1867      1869      1864      1867      1871
      1866      1869      1867      1866      1869      1872      1867      1864      1868
      1867      1869      1872      1869      1866      1870      1869      1867      1871
      1873      1874      1877      1873      1874      1878      1873      1875      1879
      1873      1875      1880      1873      1876      1881      1873      1876      1882
      1874      1873      1875      1874      1873      1876      1874      1877      1883
      1874      1877      1884      1875      1873      1876      1875      1879      1884
      1875      1879      1885      1875      1880      1886      1875      1880      1887
      1876      1881      1887      1876      1881      1888      1877      1874      1878
      1877      1883      1889      1877      1883      1890      1877      1884      1879
      1877      1884      1891      1879      1875      1880      1879      1884      1891
      1880      1887      1881      1880      1887      1892      1881      1876      1882
      1881      1887      1892      1881      1888      1893      1881      1888      1894
      1883      1877      1884      1883      1889      1895      1883      1889      1896
      1884      1879      1885      1884      1891      1895      1884      1891      1897
      1886      1880      1887      1887      1881      1888      1887      1892      1898
      1887      1892      1899      1888      1893      1899      1888      1893      1900
      1889      1883      1890      1889      1895      1891      1889      1895      1901
      1891      1895      1901      1892      1899      1893      1892      1899      1902
      1893      1888      1894      1893      1899      1902      1893      1900      1903
      1893      1900      1904      1895      1889      1896      1895      1891      1897
      1898      1892      1899      1899      1893      1900      1899      1902      1905
      1899      1902      1906      1900      1903      1905      1900      1903      1907
      1902      1905      1903      1902      1905      1908      1903      1900      1904
      1903      1905      1908      1905      1902      1906      1905      1903      1907
      1909      1910      1913      1909      1910      1914      1909      1911      1915
      1909      1911      1916      1909      1912      1917      1909      1912      1918
      1910      1909      1911      1910      1909      1912      1910      1913      1919
      1910      1913      1920      1911      1909      1912      1911      1915      1920
      1911      1915      1921      1911      1916      1922      1911      1916      1923
      1912      1917      1923      1912      1917      1924      1913      1910      1914
      1913      1919      1925      1913      1919      1926      1913      1920      1915
      1913      1920      1927      1915      1911      1916      1915      1920      1927
      1916      1923      1917      1916      1923      1928      1917      1912      1918
      1917      1923      1928      1917      1924      1929      1917      1924      1930
      1919      1913      1920      1919      1925      1931      1919      1925      1932
      1920      1915      1921      1920      1927      1931      1920      1927      1933
      1922      1916      1923      1923      1917      1924      1923      1928      1934
      1923      1928      1935      1924      1929      1935      1924      1929      1936
      1925      1919      1926      1925      1931      1927      1925      1931      1937
      1927      1931      1937      1928      1935      1929      1928      1935      1938
      1929      1924      1930      1929      1935      1938      1929      1936      1939
      1929      1936      1940      1931      1925      1932      1931      1927      1933
      1934      1928      1935      1935      1929      1936      1935      1938      1941
      1935      1938      1942      1936      1939      1941      1936      1939      1943
      1938      1941      1939      1938      1941      1944      1939      1936      1940
      1939      1941      1944      1941      1938      1942      1941      1939      1943

      5616 !NPHI: dihedrals
         1         2         5        11         1         2         5        12
         1         3         7        12         1         3         7        13
         1         3         8        14         1         3         8        15
         1         4         9        15         1         4         9        16
         2         1         3         7         2         1         3         8
         2         1         4         9         2         1         4        10
         2         5        11        17         2         5        11        18
         2         5        12         7         2         5        12        19
         3         1         2         5         3         1         2         6
         3         1         4         9         3         1         4        10
         3         7        12         5         3         7        12        19
         3         8        15         9         3         8        15        20
         4         1         2         5         4         1         2         6
         4         1         3         7         4         1         3         8
         4         9        15         8         4         9        15        20
         4         9        16        21         4         9        16        22
         5        11        17        23         5        11        17        24
         5        12         7        13         5        12        19        23
         5        12        19        25         6         2         5        11
         6         2         5        12         7         3         8        14
         7         3         8        15         7        12         5        11
         7        12        19        23         7        12        19        25
         8         3         7        12         8         3         7        13
         8        15         9        16         8        15        20        26
         8        15        20        27         9        15         8        14
         9        15        20        26         9        15        20        27
         9        16        21        27         9        16        21        28
        10         4         9        15        10         4         9        16
        11         5        12        19        11        17        23        19
        11        17        23        29        12         5        11        17
        12         5        11        18        12        19        23        17
        12        19        23        29        13         7        12        19
        14         8        15        20        15         9        16        21
        15         9        16        22        15        20        27        21
        15        20        27        30        16         9        15        20
        16        21        27        20        16        21        27        30
        16        21        28        31        16        21        28        32
        17        23        19        25        18        11        17        23
        18        11        17        24        19        23        17        24
        20        27        21        28        20        27        30        33
        20        27        30        34        21        27        20        26
        21        27        30        33        21        27        30        34
        21        28        31        33        21        28        31        35
        22        16        21        27        22        16        21        28
        24        17        23        29        25        19        23        29
        26        20        27        30        27        21        28        31
        27        21        28        32        27        30        33        31
        27        30        33        36        28        21        27        30
        28        31        33        30        28        31        33        36
        30        33        31        35        31        33        30        34
        32        28        31        33        32        28        31        35
        34        30        33        36        35        31        33        36
        37        38        41        47        37        38        41        48
        37        39        43        48        37        39        43        49
        37        39        44        50        37        39        44        51
        37        40        45        51        37        40        45        52
        38        37        39        43        38        37        39        44
        38        37        40        45        38        37        40        46
        38        41        47        53        38        41        47        54
        38        41        48        43        38        41        48        55
        39        37        38        41        39        37        38        42
        39        37        40        45        39        37        40        46
        39        43        48        41        39        43        48        55
        39        44        51        45        39        44        51        56
        40        37        38        41        40        37        38        42
        40        37        39        43        40        37        39        44
        40        45        51        44        40        45        51        56
        40        45        52        57        40        45        52        58
        41        47        53        59        41        47        53        60
        41        48        43        49        41        48        55        59
        41        48        55        61        42        38        41        47
        42        38        41        48        43        39        44        50
        43        39        44        51        43        48        41        47
        43        48        55        59        43        48        55        61
        44        39        43        48        44        39        43        49
        44        51        45        52        44        51        56        62
        44        51        56        63        45        51        44        50
        45        51        56        62        45        51        56        63
        45        52        57        63        45        52        57        64
        46        40        45        51        46        40        45        52
        47        41        48        55        47        53        59        55
        47        53        59        65        48        41        47        53
        48        41        47        54        48        55        59        53
        48        55        59        65        49        43        48        55
        50        44        51        56        51        45        52        57
        51        45        52        58        51        56        63        57
        51        56        63        66        52        45        51        56
        52        57        63        56        52        57        63        66
        52        57        64        67        52        57        64        68
        53        59        55        61        54        47        53        59
        54        47        53        60        55        59        53        60
        56        63        57        64        56        63        66        69
        56        63        66        70        57        63        56        62
        57        63        66        69        57        63        66        70
        57        64        67        69        57        64        67        71
        58        52        57        63        58        52        57        64
        60        53        59        65        61        55        59        65
        62        56        63        66        63        57        64        67
        63        57        64        68        63        66        69        67
        63        66        69        72        64        57        63        66
        64        67        69        66        64        67        69        72
        66        69        67        71        67        69        66        70
        68        64        67        69        68        64        67        71
        70        66        69        72        71        67        69        72
        73        74        77        83        73        74        77        84
        73        75        79        84        73        75        79        85
        73        75        80        86        73        75        80        87
        73        76        81        87        73        76        81        88
        74        73        75        79        74        73        75        80
        74        73        76        81        74        73        76        82
        74        77        83        89        74        77        83        90
        74        77        84        79        74        77        84        91
        75        73        74        77        75        73        74        78
        75        73        76        81        75        73        76        82
        75        79        84        77        75        79        84        91
        75        80        87        81        75        80        87        92
        76        73        74        77        76        73        74        78
        76        73        75        79        76        73        75        80
        76        81        87        80        76        81        87        92
        76        81        88        93        76        81        88        94
        77        83        89        95        77        83        89        96
        77        84        79        85        77        84        91        95
        77        84        91        97        78        74        77        83
        78        74        77        84        79        75        80        86
        79        75        80        87        79        84        77        83
        79        84        91        95        79        84        91        97
        80        75        79        84        80        75        79        85
        80        87        81        88        80        87        92        98
        80        87        92        99        81        87        80        86
        81        87        92        98        81        87        92        99
        81        88        93        99        81        88        93       100
        82        76        81        87        82        76        81        88
        83        77        84        91        83        89        95        91
        83        89        95       101        84        77        83        89
        84        77        83        90        84        91        95        89
        84        91        95       101        85        79        84        91
        86        80        87        92        87        81        88        93
        87        81        88        94        87        92        99        93
        87        92        99       102        88        81        87        92
        88        93        99        92        88        93        99       102
        88        93       100       103        88        93       100       104
        89        95        91        97        90        83        89        95
        90        83        89        96        91        95        89        96
        92        99        93       100        92        99       102       105
        92        99       102       106        93        99        92        98
        93        99       102       105        93        99       102       106
        93       100       103       105        93       100       103       107
        94        88        93        99        94        88        93       100
        96        89        95       101        97        91        95       101
        98        92        99       102        99        93       100       103
        99        93       100       104        99       102       105       103
        99       102       105       108       100        93        99       102
       100       103       105       102       100       103       105       108
       102       105       103       107       103       105       102       106
       104       100       103       105       104       100       103       107
       106       102       105       108       107       103       105       108
       109       110       113       119       109       110       113       120
       109       111       115       120       109       111       115       121
       109       111       116       122       109       111       116       123
       109       112       117       123       109       112       117       124
       110       109       111       115       110       109       111       116
       110       109       112       117       110       109       112       118
       110       113       119       125       110       113       119       126
       110       113       120       115       110       113       120       127
       111       109       110       113       111       109       110       114
       111       109       112       117       111       109       112       118
       111       115       120       113       111       115       120       127
       111       116       123       117       111       116       123       128
       112       109       110       113       112       109       110       114
       112       109       111       115       112       109       111       116
       112       117       123       116       112       117       123       128
       112       117       124       129       112       117       124       130
       113       119       125       131       113       119       125       132
       113       120       115       121       113       120       127       131
       113       120       127       133       114       110       113       119
       114       110       113       120       115       111       116       122
       115       111       116       123       115       120       113       119
       115       120       127       131       115       120       127       133
       116       111       115       120       116       111       115       121
       116       123       117       124       116       123       128       134
       116       123       128       135       117       123       116       122
       117       123       128       134       117       123       128       135
       117       124       129       135       117       124       129       136
       118       112       117       123       118       112       117       124
       119       113       120       127       119       125       131       127
       119       125       131       137       120       113       119       125
       120       113       119       126       120       127       131       125
       120       127       131       137       121       115       120       127
       122       116       123       128       123       117       124       129
       123       117       124       130       123       128       135       129
       123       128       135       138       124       117       123       128
       124       129       135       128       124       129       135       138
       124       129       136       139       124       129       136       140
       125       131       127       133       126       119       125       131
       126       119       125       132       127       131       125       132
       128       135       129       136       128       135       138       141
       128       135       138       142       129       135       128       134
       129       135       138       141       129       135       138       142
       129       136       139       141       129       136       139       143
       130       124       129       135       130       124       129       136
       132       125       131       137       133       127       131       137
       134       128       135       138       135       129       136       139
       135       129       136       140       135       138       141       139
       135       138       141       144       136       129       135       138
       136       139       141       138       136       139       141       144
       138       141       139       143       139       141       138       142
       140       136       139       141       140       136       139       143
       142       138       141       144       143       139       141       144
       145       146       149       155       145       146       149       156
       145       147       151       156       145       147       151       157
       145       147       152       158       145       147       152       159
       145       148       153       159       145       148       153       160
       146       145       147       151       146       145       147       152
       146       145       148       153       146       145       148       154
       146       149       155       161       146       149       155       162
       146       149       156       151       146       149       156       163
       147       145       146       149       147       145       146       150
       147       145       148       153       147       145       148       154
       147       151       156       149       147       151       156       163
       147       152       159       153       147       152       159       164
       148       145       146       149       148       145       146       150
       148       145       147       151       148       145       147       152
       148       153       159       152       148       153       159       164
       148       153       160       165       148       153       160       166
       149       155       161       167       149       155       161       168
       149       156       151       157       149       156       163       167
       149       156       163       169       150       146       149       155
       150       146       149       156       151       147       152       158
       151       147       152       159       151       156       149       155
       151       156       163       167       151       156       163       169
       152       147       151       156       152       147       151       157
       152       159       153       160       152       159       164       170
       152       159       164       171       153       159       152       158
       153       159       164       170       153       159       164       171
       153       160       165       171       153       160       165       172
       154       148       153       159       154       148       153       160
       155       149       156       163       155       161       167       163
       155       161       167       173       156       149       155       161
       156       149       155       162       156       163       167       161
       156       163       167       173       157       151       156       163
       158       152       159       164       159       153       160       165
       159       153       160       166       159       164       171       165
       159       164       171       174       160       153       159       164
       160       165       171       164       160       165       171       174
       160       165       172       175       160       165       172       176
       161       167       163       169       162       155       161       167
       162       155       161       168       163       167       161       168
       164       171       165       172       164       171       174       177
       164       171       174       178       165       171       164       170
       165       171       174       177       165       171       174       178
       165       172       175       177       165       172       175       179
       166       160       165       171       166       160       165       172
       168       161       167       173       169       163       167       173
       170       164       171       174       171       165       172       175
       171       165       172       176       171       174       177       175
       171       174       177       180       172       165       171       174
       172       175       177       174       172       175       177       180
       174       177       175       179       175       177       174       178
       176       172       175       177       176       172       175       179
       178       174       177       180       179       175       177       180
       181       182       185       191       181       182       185       192
       181       183       187       192       181       183       187       193
       181       183       188       194       181       183       188       195
       181       184       189       195       181       184       189       196
       182       181       183       187       182       181       183       188
       182       181       184       189       182       181       184       190
       182       185       191       197       182       185       191       198
       182       185       192       187       182       185       192       199
       183       181       182       185       183       181       182       186
       183       181       184       189       183       181       184       190
       183       187       192       185       183       187       192       199
       183       188       195       189       183       188       195       200
       184       181       182       185       184       181       182       186
       184       181       183       187       184       181       183       188
       184       189       195       188       184       189       195       200
       184       189       196       201       184       189       196       202
       185       191       197       203       185       191       197       204
       185       192       187       193       185       192       199       203
       185       192       199       205       186       182       185       191
       186       182       185       192       187       183       188       194
       187       183       188       195       187       192       185       191
       187       192       199       203       187       192       199       205
       188       183       187       192       188       183       187       193
       188       195       189       196       188       195       200       206
       188       195       200       207       189       195       188       194
       189       195       200       206       189       195       200       207
       189       196       201       207       189       196       201       208
       190       184       189       195       190       184       189       196
       191       185       192       199       191       197       203       199
       191       197       203       209       192       185       191       197
       192       185       191       198       192       199       203       197
       192       199       203       209       193       187       192       199
       194       188       195       200       195       189       196       201
       195       189       196       202       195       200       207       201
       195       200       207       210       196       189       195       200
       196       201       207       200       196       201       207       210
       196       201       208       211       196       201       208       212
       197       203       199       205       198       191       197       203
       198       191       197       204       199       203       197       204
       200       207       201       208       200       207       210       213
       200       207       210       214       201       207       200       206
       201       207       210       213       201       207       210       214
       201       208       211       213       201       208       211       215
       202       196       201       207       202       196       201       208
       204       197       203       209       205       199       203       209
       206       200       207       210       207       201       208       211
       207       201       208       212       207       210       213       211
       207       210       213       216       208       201       207       210
       208       211       213       210       208       211       213       216
       210       213       211       215       211       213       210       214
       212       208       211       213       212       208       211       215
       214       210       213       216       215       211       213       216
       217       218       221       227       217       218       221       228
       217       219       223       228       217       219       223       229
       217       219       224       230       217       219       224       231
       217       220       225       231       217       220       225       232
       218       217       219       223       218       217       219       224
       218       217       220       225       218       217       220       226
       218       221       227       233       218       221       227       234
       218       221       228       223       218       221       228       235
       219       217       218       221       219       217       218       222
       219       217       220       225       219       217       220       226
       219       223       228       221       219       223       228       235
       219       224       231       225       219       224       231       236
       220       217       218       221       220       217       218       222
       220       217       219       223       220       217       219       224
       220       225       231       224       220       225       231       236
       220       225       232       237       220       225       232       238
       221       227       233       239       221       227       233       240
       221       228       223       229       221       228       235       239
       221       228       235       241       222       218       221       227
       222       218       221       228       223       219       224       230
       223       219       224       231       223       228       221       227
       223       228       235       239       223       228       235       241
       224       219       223       228       224       219       223       229
       224       231       225       232       224       231       236       242
       224       231       236       243       225       231       224       230
       225       231       236       242       225       231       236       243
       225       232       237       243       225       232       237       244
       226       220       225       231       226       220       225       232
       227       221       228       235       227       233       239       235
       227       233       239       245       228       221       227       233
       228       221       227       234       228       235       239       233
       228       235       239       245       229       223       228       235
       230       224       231       236       231       225       232       237
       231       225       232       238       231       236       243       237
       231       236       243       246       232       225       231       236
       232       237       243       236       232       237       243       246
       232       237       244       247       232       237       244       248
       233       239       235       241       234       227       233       239
       234       227       233       240       235       239       233       240
       236       243       237       244       236       243       246       249
       236       243       246       250       237       243       236       242
       237       243       246       249       237       243       246       250
       237       244       247       249       237       244       247       251
       238       232       237       243       238       232       237       244
       240       233       239       245       241       235       239       245
       242       236       243       246       243       237       244       247
       243       237       244       248       243       246       249       247
       243       246       249       252       244       237       243       246
       244       247       249       246       244       247       249       252
       246       249       247       251       247       249       246       250
       248       244       247       249       248       244       247       251
       250       246       249       252       251       247       249       252
       253       254       257       263       253       254       257       264
       253       255       259       264       253       255       259       265
       253       255       260       266       253       255       260       267
       253       256       261       267       253       256       261       268
       254       253       255       259       254       253       255       260
       254       253       256       261       254       253       256       262
       254       257       263       269       254       257       263       270
       254       257       264       259       254       257       264       271
       255       253       254       257       255       253       254       258
       255       253       256       261       255       253       256       262
       255       259       264       257       255       259       264       271
       255       260       267       261       255       260       267       272
       256       253       254       257       256       253       254       258
       256       253       255       259       256       253       255       260
       256       261       267       260       256       261       267       272
       256       261       268       273       256       261       268       274
       257       263       269       275       257       263       269       276
       257       264       259       265       257       264       271       275
       257       264       271       277       258       254       257       263
       258       254       257       264       259       255       260       266
       259       255       260       267       259       264       257       263
       259       264       271       275       259       264       271       277
       260       255       259       264       260       255       259       265
       260       267       261       268       260       267       272       278
       260       267       272       279       261       267       260       266
       261       267       272       278       261       267       272       279
       261       268       273       279       261       268       273       280
       262       256       261       267       262       256       261       268
       263       257       264       271       263       269       275       271
       263       269       275       281       264       257       263       269
       264       257       263       270       264       271       275       269
       264       271       275       281       265       259       264       271
       266       260       267       272       267       261       268       273
       267       261       268       274       267       272       279       273
       267       272       279       282       268       261       267       272
       268       273       279       272       268       273       279       282
       268       273       280       283       268       273       280       284
       269       275       271       277       270       263       269       275
       270       263       269       276       271       275       269       276
       272       279       273       280       272       279       282       285
       272       279       282       286       273       279       272       278
       273       279       282       285       273       279       282       286
       273       280       283       285       273       280       283       287
       274       268       273       279       274       268       273       280
       276       269       275       281       277       271       275       281
       278       272       279       282       279       273       280       283
       279       273       280       284       279       282       285       283
       279       282       285       288       280       273       279       282
       280       283       285       282       280       283       285       288
       282       285       283       287       283       285       282       286
       284       280       283       285       284       280       283       287
       286       282       285       288       287       283       285       288
       289       290       293       299       289       290       293       300
       289       291       295       300       289       291       295       301
       289       291       296       302       289       291       296       303
       289       292       297       303       289       292       297       304
       290       289       291       295       290       289       291       296
       290       289       292       297       290       289       292       298
       290       293       299       305       290       293       299       306
       290       293       300       295       290       293       300       307
       291       289       290       293       291       289       290       294
       291       289       292       297       291       289       292       298
       291       295       300       293       291       295       300       307
       291       296       303       297       291       296       303       308
       292       289       290       293       292       289       290       294
       292       289       291       295       292       289       291       296
       292       297       303       296       292       297       303       308
       292       297       304       309       292       297       304       310
       293       299       305       311       293       299       305       312
       293       300       295       301       293       300       307       311
       293       300       307       313       294       290       293       299
       294       290       293       300       295       291       296       302
       295       291       296       303       295       300       293       299
       295       300       307       311       295       300       307       313
       296       291       295       300       296       291       295       301
       296       303       297       304       296       303       308       314
       296       303       308       315       297       303       296       302
       297       303       308       314       297       303       308       315
       297       304       309       315       297       304       309       316
       298       292       297       303       298       292       297       304
       299       293       300       307       299       305       311       307
       299       305       311       317       300       293       299       305
       300       293       299       306       300       307       311       305
       300       307       311       317       301       295       300       307
       302       296       303       308       303       297       304       309
       303       297       304       310       303       308       315       309
       303       308       315       318       304       297       303       308
       304       309       315       308       304       309       315       318
       304       309       316       319       304       309       316       320
       305       311       307       313       306       299       305       311
       306       299       305       312       307       311       305       312
       308       315       309       316       308       315       318       321
       308       315       318       322       309       315       308       314
       309       315       318       321       309       315       318       322
       309       316       319       321       309       316       319       323
       310       304       309       315       310       304       309       316
       312       305       311       317       313       307       311       317
       314       308       315       318       315       309       316       319
       315       309       316       320       315       318       321       319
       315       318       321       324       316       309       315       318
       316       319       321       318       316       319       321       324
       318       321       319       323       319       321       318       322
       320       316       319       321       320       316       319       323
       322       318       321       324       323       319       321       324
       325       326       329       335       325       326       329       336
       325       327       331       336       325       327       331       337
       325       327       332       338       325       327       332       339
       325       328       333       339       325       328       333       340
       326       325       327       331       326       325       327       332
       326       325       328       333       326       325       328       334
       326       329       335       341       326       329       335       342
       326       329       336       331       326       329       336       343
       327       325       326       329       327       325       326       330
       327       325       328       333       327       325       328       334
       327       331       336       329       327       331       336       343
       327       332       339       333       327       332       339       344
       328       325       326       329       328       325       326       330
       328       325       327       331       328       325       327       332
       328       333       339       332       328       333       339       344
       328       333       340       345       328       333       340       346
       329       335       341       347       329       335       341       348
       329       336       331       337       329       336       343       347
       329       336       343       349       330       326       329       335
       330       326       329       336       331       327       332       338
       331       327       332       339       331       336       329       335
       331       336       343       347       331       336       343       349
       332       327       331       336       332       327       331       337
       332       339       333       340       332       339       344       350
       332       339       344       351       333       339       332       338
       333       339       344       350       333       339       344       351
       333       340       345       351       333       340       345       352
       334       328       333       339       334       328       333       340
       335       329       336       343       335       341       347       343
       335       341       347       353       336       329       335       341
       336       329       335       342       336       343       347       341
       336       343       347       353       337       331       336       343
       338       332       339       344       339       333       340       345
       339       333       340       346       339       344       351       345
       339       344       351       354       340       333       339       344
       340       345       351       344       340       345       351       354
       340       345       352       355       340       345       352       356
       341       347       343       349       342       335       341       347
       342       335       341       348       343       347       341       348
       344       351       345       352       344       351       354       357
       344       351       354       358       345       351       344       350
       345       351       354       357       345       351       354       358
       345       352       355       357       345       352       355       359
       346       340       345       351       346       340       345       352
       348       341       347       353       349       343       347       353
       350       344       351       354       351       345       352       355
       351       345       352       356       351       354       357       355
       351       354       357       360       352       345       351       354
       352       355       357       354       352       355       357       360
       354       357       355       359       355       357       354       358
       356       352       355       357       356       352       355       359
       358       354       357       360       359       355       357       360
       361       362       365       371       361       362       365       372
       361       363       367       372       361       363       367       373
       361       363       368       374       361       363       368       375
       361       364       369       375       361       364       369       376
       362       361       363       367       362       361       363       368
       362       361       364       369       362       361       364       370
       362       365       371       377       362       365       371       378
       362       365       372       367       362       365       372       379
       363       361       362       365       363       361       362       366
       363       361       364       369       363       361       364       370
       363       367       372       365       363       367       372       379
       363       368       375       369       363       368       375       380
       364       361       362       365       364       361       362       366
       364       361       363       367       364       361       363       368
       364       369       375       368       364       369       375       380
       364       369       376       381       364       369       376       382
       365       371       377       383       365       371       377       384
       365       372       367       373       365       372       379       383
       365       372       379       385       366       362       365       371
       366       362       365       372       367       363       368       374
       367       363       368       375       367       372       365       371
       367       372       379       383       367       372       379       385
       368       363       367       372       368       363       367       373
       368       375       369       376       368       375       380       386
       368       375       380       387       369       375       368       374
       369       375       380       386       369       375       380       387
       369       376       381       387       369       376       381       388
       370       364       369       375       370       364       369       376
       371       365       372       379       371       377       383       379
       371       377       383       389       372       365       371       377
       372       365       371       378       372       379       383       377
       372       379       383       389       373       367       372       379
       374       368       375       380       375       369       376       381
       375       369       376       382       375       380       387       381
       375       380       387       390       376       369       375       380
       376       381       387       380       376       381       387       390
       376       381       388       391       376       381       388       392
       377       383       379       385       378       371       377       383
       378       371       377       384       379       383       377       384
       380       387       381       388       380       387       390       393
       380       387       390       394       381       387       380       386
       381       387       390       393       381       387       390       394
       381       388       391       393       381       388       391       395
       382       376       381       387       382       376       381       388
       384       377       383       389       385       379       383       389
       386       380       387       390       387       381       388       391
       387       381       388       392       387       390       393       391
       387       390       393       396       388       381       387       390
       388       391       393       390       388       391       393       396
       390       393       391       395       391       393       390       394
       392       388       391       393       392       388       391       395
       394       390       393       396       395       391       393       396
       397       398       401       407       397       398       401       408
       397       399       403       408       397       399       403       409
       397       399       404       410       397       399       404       411
       397       400       405       411       397       400       405       412
       398       397       399       403       398       397       399       404
       398       397       400       405       398       397       400       406
       398       401       407       413       398       401       407       414
       398       401       408       403       398       401       408       415
       399       397       398       401       399       397       398       402
       399       397       400       405       399       397       400       406
       399       403       408       401       399       403       408       415
       399       404       411       405       399       404       411       416
       400       397       398       401       400       397       398       402
       400       397       399       403       400       397       399       404
       400       405       411       404       400       405       411       416
       400       405       412       417       400       405       412       418
       401       407       413       419       401       407       413       420
       401       408       403       409       401       408       415       419
       401       408       415       421       402       398       401       407
       402       398       401       408       403       399       404       410
       403       399       404       411       403       408       401       407
       403       408       415       419       403       408       415       421
       404       399       403       408       404       399       403       409
       404       411       405       412       404       411       416       422
       404       411       416       423       405       411       404       410
       405       411       416       422       405       411       416       423
       405       412       417       423       405       412       417       424
       406       400       405       411       406       400       405       412
       407       401       408       415       407       413       419       415
       407       413       419       425       408       401       407       413
       408       401       407       414       408       415       419       413
       408       415       419       425       409       403       408       415
       410       404       411       416       411       405       412       417
       411       405       412       418       411       416       423       417
       411       416       423       426       412       405       411       416
       412       417       423       416       412       417       423       426
       412       417       424       427       412       417       424       428
       413       419       415       421       414       407       413       419
       414       407       413       420       415       419       413       420
       416       423       417       424       416       423       426       429
       416       423       426       430       417       423       416       422
       417       423       426       429       417       423       426       430
       417       424       427       429       417       424       427       431
       418       412       417       423       418       412       417       424
       420       413       419       425       421       415       419       425
       422       416       423       426       423       417       424       427
       423       417       424       428       423       426       429       427
       423       426       429       432       424       417       423       426
       424       427       429       426       424       427       429       432
       426       429       427       431       427       429       426       430
       428       424       427       429       428       424       427       431
       430       426       429       432       431       427       429       432
       433       434       437       443       433       434       437       444
       433       435       439       444       433       435       439       445
       433       435       440       446       433       435       440       447
       433       436       441       447       433       436       441       448
       434       433       435       439       434       433       435       440
       434       433       436       441       434       433       436       442
       434       437       443       449       434       437       443       450
       434       437       444       439       434       437       444       451
       435       433       434       437       435       433       434       438
       435       433       436       441       435       433       436       442
       435       439       444       437       435       439       444       451
       435       440       447       441       435       440       447       452
       436       433       434       437       436       433       434       438
       436       433       435       439       436       433       435       440
       436       441       447       440       436       441       447       452
       436       441       448       453       436       441       448       454
       437       443       449       455       437       443       449       456
       437       444       439       445       437       444       451       455
       437       444       451       457       438       434       437       443
       438       434       437       444       439       435       440       446
       439       435       440       447       439       444       437       443
       439       444       451       455       439       444       451       457
       440       435       439       444       440       435       439       445
       440       447       441       448       440       447       452       458
       440       447       452       459       441       447       440       446
       441       447       452       458       441       447       452       459
       441       448       453       459       441       448       453       460
       442       436       441       447       442       436       441       448
       443       437       444       451       443       449       455       451
       443       449       455       461       444       437       443       449
       444       437       443       450       444       451       455       449
       444       451       455       461       445       439       444       451
       446       440       447       452       447       441       448       453
       447       441       448       454       447       452       459       453
       447       452       459       462       448       441       447       452
       448       453       459       452       448       453       459       462
       448       453       460       463       448       453       460       464
       449       455       451       457       450       443       449       455
       450       443       449       456       451       455       449       456
       452       459       453       460       452       459       462       465
       452       459       462       466       453       459       452       458
       453       459       462       465       453       459       462       466
       453       460       463       465       453       460       463       467
       454       448       453       459       454       448       453       460
       456       449       455       461       457       451       455       461
       458       452       459       462       459       453       460       463
       459       453       460       464       459       462       465       463
       459       462       465       468       460       453       459       462
       460       463       465       462       460       463       465       468
       462       465       463       467       463       465       462       466
       464       460       463       465       464       460       463       467
       466       462       465       468       467       463       465       468
       469       470       473       479       469       470       473       480
       469       471       475       480       469       471       475       481
       469       471       476       482       469       471       476       483
       469       472       477       483       469       472       477       484
       470       469       471       475       470       469       471       476
       470       469       472       477       470       469       472       478
       470       473       479       485       470       473       479       486
       470       473       480       475       470       473       480       487
       471       469       470       473       471       469       470       474
       471       469       472       477       471       469       472       478
       471       475       480       473       471       475       480       487
       471       476       483       477       471       476       483       488
       472       469       470       473       472       469       470       474
       472       469       471       475       472       469       471       476
       472       477       483       476       472       477       483       488
       472       477       484       489       472       477       484       490
       473       479       485       491       473       479       485       492
       473       480       475       481       473       480       487       491
       473       480       487       493       474       470       473       479
       474       470       473       480       475       471       476       482
       475       471       476       483       475       480       473       479
       475       480       487       491       475       480       487       493
       476       471       475       480       476       471       475       481
       476       483       477       484       476       483       488       494
       476       483       488       495       477       483       476       482
       477       483       488       494       477       483       488       495
       477       484       489       495       477       484       489       496
       478       472       477       483       478       472       477       484
       479       473       480       487       479       485       491       487
       479       485       491       497       480       473       479       485
       480       473       479       486       480       487       491       485
       480       487       491       497       481       475       480       487
       482       476       483       488       483       477       484       489
       483       477       484       490       483       488       495       489
       483       488       495       498       484       477       483       488
       484       489       495       488       484       489       495       498
       484       489       496       499       484       489       496       500
       485       491       487       493       486       479       485       491
       486       479       485       492       487       491       485       492
       488       495       489       496       488       495       498       501
       488       495       498       502       489       495       488       494
       489       495       498       501       489       495       498       502
       489       496       499       501       489       496       499       503
       490       484       489       495       490       484       489       496
       492       485       491       497       493       487       491       497
       494       488       495       498       495       489       496       499
       495       489       496       500       495       498       501       499
       495       498       501       504       496       489       495       498
       496       499       501       498       496       499       501       504
       498       501       499       503       499       501       498       502
       500       496       499       501       500       496       499       503
       502       498       501       504       503       499       501       504
       505       506       509       515       505       506       509       516
       505       507       511       516       505       507       511       517
       505       507       512       518       505       507       512       519
       505       508       513       519       505       508       513       520
       506       505       507       511       506       505       507       512
       506       505       508       513       506       505       508       514
       506       509       515       521       506       509       515       522
       506       509       516       511       506       509       516       523
       507       505       506       509       507       505       506       510
       507       505       508       513       507       505       508       514
       507       511       516       509       507       511       516       523
       507       512       519       513       507       512       519       524
       508       505       506       509       508       505       506       510
       508       505       507       511       508       505       507       512
       508       513       519       512       508       513       519       524
       508       513       520       525       508       513       520       526
       509       515       521       527       509       515       521       528
       509       516       511       517       509       516       523       527
       509       516       523       529       510       506       509       515
       510       506       509       516       511       507       512       518
       511       507       512       519       511       516       509       515
       511       516       523       527       511       516       523       529
       512       507       511       516       512       507       511       517
       512       519       513       520       512       519       524       530
       512       519       524       531       513       519       512       518
       513       519       524       530       513       519       524       531
       513       520       525       531       513       520       525       532
       514       508       513       519       514       508       513       520
       515       509       516       523       515       521       527       523
       515       521       527       533       516       509       515       521
       516       509       515       522       516       523       527       521
       516       523       527       533       517       511       516       523
       518       512       519       524       519       513       520       525
       519       513       520       526       519       524       531       525
       519       524       531       534       520       513       519       524
       520       525       531       524       520       525       531       534
       520       525       532       535       520       525       532       536
       521       527       523       529       522       515       521       527
       522       515       521       528       523       527       521       528
       524       531       525       532       524       531       534       537
       524       531       534       538       525       531       524       530
       525       531       534       537       525       531       534       538
       525       532       535       537       525       532       535       539
       526       520       525       531       526       520       525       532
       528       521       527       533       529       523       527       533
       530       524       531       534       531       525       532       535
       531       525       532       536       531       534       537       535
       531       534       537       540       532       525       531       534
       532       535       537       534       532       535       537       540
       534       537       535       539       535       537       534       538
       536       532       535       537       536       532       535       539
       538       534       537       540       539       535       537       540
       541       542       545       551       541       542       545       552
       541       543       547       552       541       543       547       553
       541       543       548       554       541       543       548       555
       541       544       549       555       541       544       549       556
       542       541       543       547       542       541       543       548
       542       541       544       549       542       541       544       550
       542       545       551       557       542       545       551       558
       542       545       552       547       542       545       552       559
       543       541       542       545       543       541       542       546
       543       541       544       549       543       541       544       550
       543       547       552       545       543       547       552       559
       543       548       555       549       543       548       555       560
       544       541       542       545       544       541       542       546
       544       541       543       547       544       541       543       548
       544       549       555       548       544       549       555       560
       544       549       556       561       544       549       556       562
       545       551       557       563       545       551       557       564
       545       552       547       553       545       552       559       563
       545       552       559       565       546       542       545       551
       546       542       545       552       547       543       548       554
       547       543       548       555       547       552       545       551
       547       552       559       563       547       552       559       565
       548       543       547       552       548       543       547       553
       548       555       549       556       548       555       560       566
       548       555       560       567       549       555       548       554
       549       555       560       566       549       555       560       567
       549       556       561       567       549       556       561       568
       550       544       549       555       550       544       549       556
       551       545       552       559       551       557       563       559
       551       557       563       569       552       545       551       557
       552       545       551       558       552       559       563       557
       552       559       563       569       553       547       552       559
       554       548       555       560       555       549       556       561
       555       549       556       562       555       560       567       561
       555       560       567       570       556       549       555       560
       556       561       567       560       556       561       567       570
       556       561       568       571       556       561       568       572
       557       563       559       565       558       551       557       563
       558       551       557       564       559       563       557       564
       560       567       561       568       560       567       570       573
       560       567       570       574       561       567       560       566
       561       567       570       573       561       567       570       574
       561       568       571       573       561       568       571       575
       562       556       561       567       562       556       561       568
       564       557       563       569       565       559       563       569
       566       560       567       570       567       561       568       571
       567       561       568       572       567       570       573       571
       567       570       573       576       568       561       567       570
       568       571       573       570       568       571       573       576
       570       573       571       575       571       573       570       574
       572       568       571       573       572       568       571       575
       574       570       573       576       575       571       573       576
       577       578       581       587       577       578       581       588
       577       579       583       588       577       579       583       589
       577       579       584       590       577       579       584       591
       577       580       585       591       577       580       585       592
       578       577       579       583       578       577       579       584
       578       577       580       585       578       577       580       586
       578       581       587       593       578       581       587       594
       578       581       588       583       578       581       588       595
       579       577       578       581       579       577       578       582
       579       577       580       585       579       577       580       586
       579       583       588       581       579       583       588       595
       579       584       591       585       579       584       591       596
       580       577       578       581       580       577       578       582
       580       577       579       583       580       577       579       584
       580       585       591       584       580       585       591       596
       580       585       592       597       580       585       592       598
       581       587       593       599       581       587       593       600
       581       588       583       589       581       588       595       599
       581       588       595       601       582       578       581       587
       582       578       581       588       583       579       584       590
       583       579       584       591       583       588       581       587
       583       588       595       599       583       588       595       601
       584       579       583       588       584       579       583       589
       584       591       585       592       584       591       596       602
       584       591       596       603       585       591       584       590
       585       591       596       602       585       591       596       603
       585       592       597       603       585       592       597       604
       586       580       585       591       586       580       585       592
       587       581       588       595       587       593       599       595
       587       593       599       605       588       581       587       593
       588       581       587       594       588       595       599       593
       588       595       599       605       589       583       588       595
       590       584       591       596       591       585       592       597
       591       585       592       598       591       596       603       597
       591       596       603       606       592       585       591       596
       592       597       603       596       592       597       603       606
       592       597       604       607       592       597       604       608
       593       599       595       601       594       587       593       599
       594       587       593       600       595       599       593       600
       596       603       597       604       596       603       606       609
       596       603       606       610       597       603       596       602
       597       603       606       609       597       603       606       610
       597       604       607       609       597       604       607       611
       598       592       597       603       598       592       597       604
       600       593       599       605       601       595       599       605
       602       596       603       606       603       597       604       607
       603       597       604       608       603       606       609       607
       603       606       609       612       604       597       603       606
       604       607       609       606       604       607       609       612
       606       609       607       611       607       609       606       610
       608       604       607       609       608       604       607       611
       610       606       609       612       611       607       609       612
       613       614       617       623       613       614       617       624
       613       615       619       624       613       615       619       625
       613       615       620       626       613       615       620       627
       613       616       621       627       613       616       621       628
       614       613       615       619       614       613       615       620
       614       613       616       621       614       613       616       622
       614       617       623       629       614       617       623       630
       614       617       624       619       614       617       624       631
       615       613       614       617       615       613       614       618
       615       613       616       621       615       613       616       622
       615       619       624       617       615       619       624       631
       615       620       627       621       615       620       627       632
       616       613       614       617       616       613       614       618
       616       613       615       619       616       613       615       620
       616       621       627       620       616       621       627       632
       616       621       628       633       616       621       628       634
       617       623       629       635       617       623       629       636
       617       624       619       625       617       624       631       635
       617       624       631       637       618       614       617       623
       618       614       617       624       619       615       620       626
       619       615       620       627       619       624       617       623
       619       624       631       635       619       624       631       637
       620       615       619       624       620       615       619       625
       620       627       621       628       620       627       632       638
       620       627       632       639       621       627       620       626
       621       627       632       638       621       627       632       639
       621       628       633       639       621       628       633       640
       622       616       621       627       622       616       621       628
       623       617       624       631       623       629       635       631
       623       629       635       641       624       617       623       629
       624       617       623       630       624       631       635       629
       624       631       635       641       625       619       624       631
       626       620       627       632       627       621       628       633
       627       621       628       634       627       632       639       633
       627       632       639       642       628       621       627       632
       628       633       639       632       628       633       639       642
       628       633       640       643       628       633       640       644
       629       635       631       637       630       623       629       635
       630       623       629       636       631       635       629       636
       632       639       633       640       632       639       642       645
       632       639       642       646       633       639       632       638
       633       639       642       645       633       639       642       646
       633       640       643       645       633       640       643       647
       634       628       633       639       634       628       633       640
       636       629       635       641       637       631       635       641
       638       632       639       642       639       633       640       643
       639       633       640       644       639       642       645       643
       639       642       645       648       640       633       639       642
       640       643       645       642       640       643       645       648
       642       645       643       647       643       645       642       646
       644       640       643       645       644       640       643       647
       646       642       645       648       647       643       645       648
       649       650       653       659       649       650       653       660
       649       651       655       660       649       651       655       661
       649       651       656       662       649       651       656       663
       649       652       657       663       649       652       657       664
       650       649       651       655       650       649       651       656
       650       649       652       657       650       649       652       658
       650       653       659       665       650       653       659       666
       650       653       660       655       650       653       660       667
       651       649       650       653       651       649       650       654
       651       649       652       657       651       649       652       658
       651       655       660       653       651       655       660       667
       651       656       663       657       651       656       663       668
       652       649       650       653       652       649       650       654
       652       649       651       655       652       649       651       656
       652       657       663       656       652       657       663       668
       652       657       664       669       652       657       664       670
       653       659       665       671       653       659       665       672
       653       660       655       661       653       660       667       671
       653       660       667       673       654       650       653       659
       654       650       653       660       655       651       656       662
       655       651       656       663       655       660       653       659
       655       660       667       671       655       660       667       673
       656       651       655       660       656       651       655       661
       656       663       657       664       656       663       668       674
       656       663       668       675       657       663       656       662
       657       663       668       674       657       663       668       675
       657       664       669       675       657       664       669       676
       658       652       657       663       658       652       657       664
       659       653       660       667       659       665       671       667
       659       665       671       677       660       653       659       665
       660       653       659       666       660       667       671       665
       660       667       671       677       661       655       660       667
       662       656       663       668       663       657       664       669
       663       657       664       670       663       668       675       669
       663       668       675       678       664       657       663       668
       664       669       675       668       664       669       675       678
       664       669       676       679       664       669       676       680
       665       671       667       673       666       659       665       671
       666       659       665       672       667       671       665       672
       668       675       669       676       668       675       678       681
       668       675       678       682       669       675       668       674
       669       675       678       681       669       675       678       682
       669       676       679       681       669       676       679       683
       670       664       669       675       670       664       669       676
       672       665       671       677       673       667       671       677
       674       668       675       678       675       669       676       679
       675       669       676       680       675       678       681       679
       675       678       681       684       676       669       675       678
       676       679       681       678       676       679       681       684
       678       681       679       683       679       681       678       682
       680       676       679       681       680       676       679       683
       682       678       681       684       683       679       681       684
       685       686       689       695       685       686       689       696
       685       687       691       696       685       687       691       697
       685       687       692       698       685       687       692       699
       685       688       693       699       685       688       693       700
       686       685       687       691       686       685       687       692
       686       685       688       693       686       685       688       694
       686       689       695       701       686       689       695       702
       686       689       696       691       686       689       696       703
       687       685       686       689       687       685       686       690
       687       685       688       693       687       685       688       694
       687       691       696       689       687       691       696       703
       687       692       699       693       687       692       699       704
       688       685       686       689       688       685       686       690
       688       685       687       691       688       685       687       692
       688       693       699       692       688       693       699       704
       688       693       700       705       688       693       700       706
       689       695       701       707       689       695       701       708
       689       696       691       697       689       696       703       707
       689       696       703       709       690       686       689       695
       690       686       689       696       691       687       692       698
       691       687       692       699       691       696       689       695
       691       696       703       707       691       696       703       709
       692       687       691       696       692       687       691       697
       692       699       693       700       692       699       704       710
       692       699       704       711       693       699       692       698
       693       699       704       710       693       699       704       711
       693       700       705       711       693       700       705       712
       694       688       693       699       694       688       693       700
       695       689       696       703       695       701       707       703
       695       701       707       713       696       689       695       701
       696       689       695       702       696       703       707       701
       696       703       707       713       697       691       696       703
       698       692       699       704       699       693       700       705
       699       693       700       706       699       704       711       705
       699       704       711       714       700       693       699       704
       700       705       711       704       700       705       711       714
       700       705       712       715       700       705       712       716
       701       707       703       709       702       695       701       707
       702       695       701       708       703       707       701       708
       704       711       705       712       704       711       714       717
       704       711       714       718       705       711       704       710
       705       711       714       717       705       711       714       718
       705       712       715       717       705       712       715       719
       706       700       705       711       706       700       705       712
       708       701       707       713       709       703       707       713
       710       704       711       714       711       705       712       715
       711       705       712       716       711       714       717       715
       711       714       717       720       712       705       711       714
       712       715       717       714       712       715       717       720
       714       717       715       719       715       717       714       718
       716       712       715       717       716       712       715       719
       718       714       717       720       719       715       717       720
       721       722       725       731       721       722       725       732
       721       723       727       732       721       723       727       733
       721       723       728       734       721       723       728       735
       721       724       729       735       721       724       729       736
       722       721       723       727       722       721       723       728
       722       721       724       729       722       721       724       730
       722       725       731       737       722       725       731       738
       722       725       732       727       722       725       732       739
       723       721       722       725       723       721       722       726
       723       721       724       729       723       721       724       730
       723       727       732       725       723       727       732       739
       723       728       735       729       723       728       735       740
       724       721       722       725       724       721       722       726
       724       721       723       727       724       721       723       728
       724       729       735       728       724       729       735       740
       724       729       736       741       724       729       736       742
       725       731       737       743       725       731       737       744
       725       732       727       733       725       732       739       743
       725       732       739       745       726       722       725       731
       726       722       725       732       727       723       728       734
       727       723       728       735       727       732       725       731
       727       732       739       743       727       732       739       745
       728       723       727       732       728       723       727       733
       728       735       729       736       728       735       740       746
       728       735       740       747       729       735       728       734
       729       735       740       746       729       735       740       747
       729       736       741       747       729       736       741       748
       730       724       729       735       730       724       729       736
       731       725       732       739       731       737       743       739
       731       737       743       749       732       725       731       737
       732       725       731       738       732       739       743       737
       732       739       743       749       733       727       732       739
       734       728       735       740       735       729       736       741
       735       729       736       742       735       740       747       741
       735       740       747       750       736       729       735       740
       736       741       747       740       736       741       747       750
       736       741       748       751       736       741       748       752
       737       743       739       745       738       731       737       743
       738       731       737       744       739       743       737       744
       740       747       741       748       740       747       750       753
       740       747       750       754       741       747       740       746
       741       747       750       753       741       747       750       754
       741       748       751       753       741       748       751       755
       742       736       741       747       742       736       741       748
       744       737       743       749       745       739       743       749
       746       740       747       750       747       741       748       751
       747       741       748       752       747       750       753       751
       747       750       753       756       748       741       747       750
       748       751       753       750       748       751       753       756
       750       753       751       755       751       753       750       754
       752       748       751       753       752       748       751       755
       754       750       753       756       755       751       753       756
       757       758       761       767       757       758       761       768
       757       759       763       768       757       759       763       769
       757       759       764       770       757       759       764       771
       757       760       765       771       757       760       765       772
       758       757       759       763       758       757       759       764
       758       757       760       765       758       757       760       766
       758       761       767       773       758       761       767       774
       758       761       768       763       758       761       768       775
       759       757       758       761       759       757       758       762
       759       757       760       765       759       757       760       766
       759       763       768       761       759       763       768       775
       759       764       771       765       759       764       771       776
       760       757       758       761       760       757       758       762
       760       757       759       763       760       757       759       764
       760       765       771       764       760       765       771       776
       760       765       772       777       760       765       772       778
       761       767       773       779       761       767       773       780
       761       768       763       769       761       768       775       779
       761       768       775       781       762       758       761       767
       762       758       761       768       763       759       764       770
       763       759       764       771       763       768       761       767
       763       768       775       779       763       768       775       781
       764       759       763       768       764       759       763       769
       764       771       765       772       764       771       776       782
       764       771       776       783       765       771       764       770
       765       771       776       782       765       771       776       783
       765       772       777       783       765       772       777       784
       766       760       765       771       766       760       765       772
       767       761       768       775       767       773       779       775
       767       773       779       785       768       761       767       773
       768       761       767       774       768       775       779       773
       768       775       779       785       769       763       768       775
       770       764       771       776       771       765       772       777
       771       765       772       778       771       776       783       777
       771       776       783       786       772       765       771       776
       772       777       783       776       772       777       783       786
       772       777       784       787       772       777       784       788
       773       779       775       781       774       767       773       779
       774       767       773       780       775       779       773       780
       776       783       777       784       776       783       786       789
       776       783       786       790       777       783       776       782
       777       783       786       789       777       783       786       790
       777       784       787       789       777       784       787       791
       778       772       777       783       778       772       777       784
       780       773       779       785       781       775       779       785
       782       776       783       786       783       777       784       787
       783       777       784       788       783       786       789       787
       783       786       789       792       784       777       783       786
       784       787       789       786       784       787       789       792
       786       789       787       791       787       789       786       790
       788       784       787       789       788       784       787       791
       790       786       789       792       791       787       789       792
       793       794       797       803       793       794       797       804
       793       795       799       804       793       795       799       805
       793       795       800       806       793       795       800       807
       793       796       801       807       793       796       801       808
       794       793       795       799       794       793       795       800
       794       793       796       801       794       793       796       802
       794       797       803       809       794       797       803       810
       794       797       804       799       794       797       804       811
       795       793       794       797       795       793       794       798
       795       793       796       801       795       793       796       802
       795       799       804       797       795       799       804       811
       795       800       807       801       795       800       807       812
       796       793       794       797       796       793       794       798
       796       793       795       799       796       793       795       800
       796       801       807       800       796       801       807       812
       796       801       808       813       796       801       808       814
       797       803       809       815       797       803       809       816
       797       804       799       805       797       804       811       815
       797       804       811       817       798       794       797       803
       798       794       797       804       799       795       800       806
       799       795       800       807       799       804       797       803
       799       804       811       815       799       804       811       817
       800       795       799       804       800       795       799       805
       800       807       801       808       800       807       812       818
       800       807       812       819       801       807       800       806
       801       807       812       818       801       807       812       819
       801       808       813       819       801       808       813       820
       802       796       801       807       802       796       801       808
       803       797       804       811       803       809       815       811
       803       809       815       821       804       797       803       809
       804       797       803       810       804       811       815       809
       804       811       815       821       805       799       804       811
       806       800       807       812       807       801       808       813
       807       801       808       814       807       812       819       813
       807       812       819       822       808       801       807       812
       808       813       819       812       808       813       819       822
       808       813       820       823       808       813       820       824
       809       815       811       817       810       803       809       815
       810       803       809       816       811       815       809       816
       812       819       813       820       812       819       822       825
       812       819       822       826       813       819       812       818
       813       819       822       825       813       819       822       826
       813       820       823       825       813       820       823       827
       814       808       813       819       814       808       813       820
       816       809       815       821       817       811       815       821
       818       812       819       822       819       813       820       823
       819       813       820       824       819       822       825       823
       819       822       825       828       820       813       819       822
       820       823       825       822       820       823       825       828
       822       825       823       827       823       825       822       826
       824       820       823       825       824       820       823       827
       826       822       825       828       827       823       825       828
       829       830       833       839       829       830       833       840
       829       831       835       840       829       831       835       841
       829       831       836       842       829       831       836       843
       829       832       837       843       829       832       837       844
       830       829       831       835       830       829       831       836
       830       829       832       837       830       829       832       838
       830       833       839       845       830       833       839       846
       830       833       840       835       830       833       840       847
       831       829       830       833       831       829       830       834
       831       829       832       837       831       829       832       838
       831       835       840       833       831       835       840       847
       831       836       843       837       831       836       843       848
       832       829       830       833       832       829       830       834
       832       829       831       835       832       829       831       836
       832       837       843       836       832       837       843       848
       832       837       844       849       832       837       844       850
       833       839       845       851       833       839       845       852
       833       840       835       841       833       840       847       851
       833       840       847       853       834       830       833       839
       834       830       833       840       835       831       836       842
       835       831       836       843       835       840       833       839
       835       840       847       851       835       840       847       853
       836       831       835       840       836       831       835       841
       836       843       837       844       836       843       848       854
       836       843       848       855       837       843       836       842
       837       843       848       854       837       843       848       855
       837       844       849       855       837       844       849       856
       838       832       837       843       838       832       837       844
       839       833       840       847       839       845       851       847
       839       845       851       857       840       833       839       845
       840       833       839       846       840       847       851       845
       840       847       851       857       841       835       840       847
       842       836       843       848       843       837       844       849
       843       837       844       850       843       848       855       849
       843       848       855       858       844       837       843       848
       844       849       855       848       844       849       855       858
       844       849       856       859       844       849       856       860
       845       851       847       853       846       839       845       851
       846       839       845       852       847       851       845       852
       848       855       849       856       848       855       858       861
       848       855       858       862       849       855       848       854
       849       855       858       861       849       855       858       862
       849       856       859       861       849       856       859       863
       850       844       849       855       850       844       849       856
       852       845       851       857       853       847       851       857
       854       848       855       858       855       849       856       859
       855       849       856       860       855       858       861       859
       855       858       861       864       856       849       855       858
       856       859       861       858       856       859       861       864
       858       861       859       863       859       861       858       862
       860       856       859       861       860       856       859       863
       862       858       861       864       863       859       861       864
       865       866       869       875       865       866       869       876
       865       867       871       876       865       867       871       877
       865       867       872       878       865       867       872       879
       865       868       873       879       865       868       873       880
       866       865       867       871       866       865       867       872
       866       865       868       873       866       865       868       874
       866       869       875       881       866       869       875       882
       866       869       876       871       866       869       876       883
       867       865       866       869       867       865       866       870
       867       865       868       873       867       865       868       874
       867       871       876       869       867       871       876       883
       867       872       879       873       867       872       879       884
       868       865       866       869       868       865       866       870
       868       865       867       871       868       865       867       872
       868       873       879       872       868       873       879       884
       868       873       880       885       868       873       880       886
       869       875       881       887       869       875       881       888
       869       876       871       877       869       876       883       887
       869       876       883       889       870       866       869       875
       870       866       869       876       871       867       872       878
       871       867       872       879       871       876       869       875
       871       876       883       887       871       876       883       889
       872       867       871       876       872       867       871       877
       872       879       873       880       872       879       884       890
       872       879       884       891       873       879       872       878
       873       879       884       890       873       879       884       891
       873       880       885       891       873       880       885       892
       874       868       873       879       874       868       873       880
       875       869       876       883       875       881       887       883
       875       881       887       893       876       869       875       881
       876       869       875       882       876       883       887       881
       876       883       887       893       877       871       876       883
       878       872       879       884       879       873       880       885
       879       873       880       886       879       884       891       885
       879       884       891       894       880       873       879       884
       880       885       891       884       880       885       891       894
       880       885       892       895       880       885       892       896
       881       887       883       889       882       875       881       887
       882       875       881       888       883       887       881       888
       884       891       885       892       884       891       894       897
       884       891       894       898       885       891       884       890
       885       891       894       897       885       891       894       898
       885       892       895       897       885       892       895       899
       886       880       885       891       886       880       885       892
       888       881       887       893       889       883       887       893
       890       884       891       894       891       885       892       895
       891       885       892       896       891       894       897       895
       891       894       897       900       892       885       891       894
       892       895       897       894       892       895       897       900
       894       897       895       899       895       897       894       898
       896       892       895       897       896       892       895       899
       898       894       897       900       899       895       897       900
       901       902       905       911       901       902       905       912
       901       903       907       912       901       903       907       913
       901       903       908       914       901       903       908       915
       901       904       909       915       901       904       909       916
       902       901       903       907       902       901       903       908
       902       901       904       909       902       901       904       910
       902       905       911       917       902       905       911       918
       902       905       912       907       902       905       912       919
       903       901       902       905       903       901       902       906
       903       901       904       909       903       901       904       910
       903       907       912       905       903       907       912       919
       903       908       915       909       903       908       915       920
       904       901       902       905       904       901       902       906
       904       901       903       907       904       901       903       908
       904       909       915       908       904       909       915       920
       904       909       916       921       904       909       916       922
       905       911       917       923       905       911       917       924
       905       912       907       913       905       912       919       923
       905       912       919       925       906       902       905       911
       906       902       905       912       907       903       908       914
       907       903       908       915       907       912       905       911
       907       912       919       923       907       912       919       925
       908       903       907       912       908       903       907       913
       908       915       909       916       908       915       920       926
       908       915       920       927       909       915       908       914
       909       915       920       926       909       915       920       927
       909       916       921       927       909       916       921       928
       910       904       909       915       910       904       909       916
       911       905       912       919       911       917       923       919
       911       917       923       929       912       905       911       917
       912       905       911       918       912       919       923       917
       912       919       923       929       913       907       912       919
       914       908       915       920       915       909       916       921
       915       909       916       922       915       920       927       921
       915       920       927       930       916       909       915       920
       916       921       927       920       916       921       927       930
       916       921       928       931       916       921       928       932
       917       923       919       925       918       911       917       923
       918       911       917       924       919       923       917       924
       920       927       921       928       920       927       930       933
       920       927       930       934       921       927       920       926
       921       927       930       933       921       927       930       934
       921       928       931       933       921       928       931       935
       922       916       921       927       922       916       921       928
       924       917       923       929       925       919       923       929
       926       920       927       930       927       921       928       931
       927       921       928       932       927       930       933       931
       927       930       933       936       928       921       927       930
       928       931       933       930       928       931       933       936
       930       933       931       935       931       933       930       934
       932       928       931       933       932       928       931       935
       934       930       933       936       935       931       933       936
       937       938       941       947       937       938       941       948
       937       939       943       948       937       939       943       949
       937       939       944       950       937       939       944       951
       937       940       945       951       937       940       945       952
       938       937       939       943       938       937       939       944
       938       937       940       945       938       937       940       946
       938       941       947       953       938       941       947       954
       938       941       948       943       938       941       948       955
       939       937       938       941       939       937       938       942
       939       937       940       945       939       937       940       946
       939       943       948       941       939       943       948       955
       939       944       951       945       939       944       951       956
       940       937       938       941       940       937       938       942
       940       937       939       943       940       937       939       944
       940       945       951       944       940       945       951       956
       940       945       952       957       940       945       952       958
       941       947       953       959       941       947       953       960
       941       948       943       949       941       948       955       959
       941       948       955       961       942       938       941       947
       942       938       941       948       943       939       944       950
       943       939       944       951       943       948       941       947
       943       948       955       959       943       948       955       961
       944       939       943       948       944       939       943       949
       944       951       945       952       944       951       956       962
       944       951       956       963       945       951       944       950
       945       951       956       962       945       951       956       963
       945       952       957       963       945       952       957       964
       946       940       945       951       946       940       945       952
       947       941       948       955       947       953       959       955
       947       953       959       965       948       941       947       953
       948       941       947       954       948       955       959       953
       948       955       959       965       949       943       948       955
       950       944       951       956       951       945       952       957
       951       945       952       958       951       956       963       957
       951       956       963       966       952       945       951       956
       952       957       963       956       952       957       963       966
       952       957       964       967       952       957       964       968
       953       959       955       961       954       947       953       959
       954       947       953       960       955       959       953       960
       956       963       957       964       956       963       966       969
       956       963       966       970       957       963       956       962
       957       963       966       969       957       963       966       970
       957       964       967       969       957       964       967       971
       958       952       957       963       958       952       957       964
       960       953       959       965       961       955       959       965
       962       956       963       966       963       957       964       967
       963       957       964       968       963       966       969       967
       963       966       969       972       964       957       963       966
       964       967       969       966       964       967       969       972
       966       969       967       971       967       969       966       970
       968       964       967       969       968       964       967       971
       970       966       969       972       971       967       969       972
       973       974       977       983       973       974       977       984
       973       975       979       984       973       975       979       985
       973       975       980       986       973       975       980       987
       973       976       981       987       973       976       981       988
       974       973       975       979       974       973       975       980
       974       973       976       981       974       973       976       982
       974       977       983       989       974       977       983       990
       974       977       984       979       974       977       984       991
       975       973       974       977       975       973       974       978
       975       973       976       981       975       973       976       982
       975       979       984       977       975       979       984       991
       975       980       987       981       975       980       987       992
       976       973       974       977       976       973       974       978
       976       973       975       979       976       973       975       980
       976       981       987       980       976       981       987       992
       976       981       988       993       976       981       988       994
       977       983       989       995       977       983       989       996
       977       984       979       985       977       984       991       995
       977       984       991       997       978       974       977       983
       978       974       977       984       979       975       980       986
       979       975       980       987       979       984       977       983
       979       984       991       995       979       984       991       997
       980       975       979       984       980       975       979       985
       980       987       981       988       980       987       992       998
       980       987       992       999       981       987       980       986
       981       987       992       998       981       987       992       999
       981       988       993       999       981       988       993      1000
       982       976       981       987       982       976       981       988
       983       977       984       991       983       989       995       991
       983       989       995      1001       984       977       983       989
       984       977       983       990       984       991       995       989
       984       991       995      1001       985       979       984       991
       986       980       987       992       987       981       988       993
       987       981       988       994       987       992       999       993
       987       992       999      1002       988       981       987       992
       988       993       999       992       988       993       999      1002
       988       993      1000      1003       988       993      1000      1004
       989       995       991       997       990       983       989       995
       990       983       989       996       991       995       989       996
       992       999       993      1000       992       999      1002      1005
       992       999      1002      1006       993       999       992       998
       993       999      1002      1005       993       999      1002      1006
       993      1000      1003      1005       993      1000      1003      1007
       994       988       993       999       994       988       993      1000
       996       989       995      1001       997       991       995      1001
       998       992       999      1002       999       993      1000      1003
       999       993      1000      1004       999      1002      1005      1003
       999      1002      1005      1008      1000       993       999      1002
      1000      1003      1005      1002      1000      1003      1005      1008
      1002      1005      1003      1007      1003      1005      1002      1006
      1004      1000      1003      1005      1004      1000      1003      1007
      1006      1002      1005      1008      1007      1003      1005      1008
      1009      1010      1013      1019      1009      1010      1013      1020
      1009      1011      1015      1020      1009      1011      1015      1021
      1009      1011      1016      1022      1009      1011      1016      1023
      1009      1012      1017      1023      1009      1012      1017      1024
      1010      1009      1011      1015      1010      1009      1011      1016
      1010      1009      1012      1017      1010      1009      1012      1018
      1010      1013      1019      1025      1010      1013      1019      1026
      1010      1013      1020      1015      1010      1013      1020      1027
      1011      1009      1010      1013      1011      1009      1010      1014
      1011      1009      1012      1017      1011      1009      1012      1018
      1011      1015      1020      1013      1011      1015      1020      1027
      1011      1016      1023      1017      1011      1016      1023      1028
      1012      1009      1010      1013      1012      1009      1010      1014
      1012      1009      1011      1015      1012      1009      1011      1016
      1012      1017      1023      1016      1012      1017      1023      1028
      1012      1017      1024      1029      1012      1017      1024      1030
      1013      1019      1025      1031      1013      1019      1025      1032
      1013      1020      1015      1021      1013      1020      1027      1031
      1013      1020      1027      1033      1014      1010      1013      1019
      1014      1010      1013      1020      1015      1011      1016      1022
      1015      1011      1016      1023      1015      1020      1013      1019
      1015      1020      1027      1031      1015      1020      1027      1033
      1016      1011      1015      1020      1016      1011      1015      1021
      1016      1023      1017      1024      1016      1023      1028      1034
      1016      1023      1028      1035      1017      1023      1016      1022
      1017      1023      1028      1034      1017      1023      1028      1035
      1017      1024      1029      1035      1017      1024      1029      1036
      1018      1012      1017      1023      1018      1012      1017      1024
      1019      1013      1020      1027      1019      1025      1031      1027
      1019      1025      1031      1037      1020      1013      1019      1025
      1020      1013      1019      1026      1020      1027      1031      1025
      1020      1027      1031      1037      1021      1015      1020      1027
      1022      1016      1023      1028      1023      1017      1024      1029
      1023      1017      1024      1030      1023      1028      1035      1029
      1023      1028      1035      1038      1024      1017      1023      1028
      1024      1029      1035      1028      1024      1029      1035      1038
      1024      1029      1036      1039      1024      1029      1036      1040
      1025      1031      1027      1033      1026      1019      1025      1031
      1026      1019      1025      1032      1027      1031      1025      1032
      1028      1035      1029      1036      1028      1035      1038      1041
      1028      1035      1038      1042      1029      1035      1028      1034
      1029      1035      1038      1041      1029      1035      1038      1042
      1029      1036      1039      1041      1029      1036      1039      1043
      1030      1024      1029      1035      1030      1024      1029      1036
      1032      1025      1031      1037      1033      1027      1031      1037
      1034      1028      1035      1038      1035      1029      1036      1039
      1035      1029      1036      1040      1035      1038      1041      1039
      1035      1038      1041      1044      1036      1029      1035      1038
      1036      1039      1041      1038      1036      1039      1041      1044
      1038      1041      1039      1043      1039      1041      1038      1042
      1040      1036      1039      1041      1040      1036      1039      1043
      1042      1038      1041      1044      1043      1039      1041      1044
      1045      1046      1049      1055      1045      1046      1049      1056
      1045      1047      1051      1056      1045      1047      1051      1057
      1045      1047      1052      1058      1045      1047      1052      1059
      1045      1048      1053      1059      1045      1048      1053      1060
      1046      1045      1047      1051      1046      1045      1047      1052
      1046      1045      1048      1053      1046      1045      1048      1054
      1046      1049      1055      1061      1046      1049      1055      1062
      1046      1049      1056      1051      1046      1049      1056      1063
      1047      1045      1046      1049      1047      1045      1046      1050
      1047      1045      1048      1053      1047      1045      1048      1054
      1047      1051      1056      1049      1047      1051      1056      1063
      1047      1052      1059      1053      1047      1052      1059      1064
      1048      1045      1046      1049      1048      1045      1046      1050
      1048      1045      1047      1051      1048      1045      1047      1052
      1048      1053      1059      1052      1048      1053      1059      1064
      1048      1053      1060      1065      1048      1053      1060      1066
      1049      1055      1061      1067      1049      1055      1061      1068
      1049      1056      1051      1057      1049      1056      1063      1067
      1049      1056      1063      1069      1050      1046      1049      1055
      1050      1046      1049      1056      1051      1047      1052      1058
      1051      1047      1052      1059      1051      1056      1049      1055
      1051      1056      1063      1067      1051      1056      1063      1069
      1052      1047      1051      1056      1052      1047      1051      1057
      1052      1059      1053      1060      1052      1059      1064      1070
      1052      1059      1064      1071      1053      1059      1052      1058
      1053      1059      1064      1070      1053      1059      1064      1071
      1053      1060      1065      1071      1053      1060      1065      1072
      1054      1048      1053      1059      1054      1048      1053      1060
      1055      1049      1056      1063      1055      1061      1067      1063
      1055      1061      1067      1073      1056      1049      1055      1061
      1056      1049      1055      1062      1056      1063      1067      1061
      1056      1063      1067      1073      1057      1051      1056      1063
      1058      1052      1059      1064      1059      1053      1060      1065
      1059      1053      1060      1066      1059      1064      1071      1065
      1059      1064      1071      1074      1060      1053      1059      1064
      1060      1065      1071      1064      1060      1065      1071      1074
      1060      1065      1072      1075      1060      1065      1072      1076
      1061      1067      1063      1069      1062      1055      1061      1067
      1062      1055      1061      1068      1063      1067      1061      1068
      1064      1071      1065      1072      1064      1071      1074      1077
      1064      1071      1074      1078      1065      1071      1064      1070
      1065      1071      1074      1077      1065      1071      1074      1078
      1065      1072      1075      1077      1065      1072      1075      1079
      1066      1060      1065      1071      1066      1060      1065      1072
      1068      1061      1067      1073      1069      1063      1067      1073
      1070      1064      1071      1074      1071      1065      1072      1075
      1071      1065      1072      1076      1071      1074      1077      1075
      1071      1074      1077      1080      1072      1065      1071      1074
      1072      1075      1077      1074      1072      1075      1077      1080
      1074      1077      1075      1079      1075      1077      1074      1078
      1076      1072      1075      1077      1076      1072      1075      1079
      1078      1074      1077      1080      1079      1075      1077      1080
      1081      1082      1085      1091      1081      1082      1085      1092
      1081      1083      1087      1092      1081      1083      1087      1093
      1081      1083      1088      1094      1081      1083      1088      1095
      1081      1084      1089      1095      1081      1084      1089      1096
      1082      1081      1083      1087      1082      1081      1083      1088
      1082      1081      1084      1089      1082      1081      1084      1090
      1082      1085      1091      1097      1082      1085      1091      1098
      1082      1085      1092      1087      1082      1085      1092      1099
      1083      1081      1082      1085      1083      1081      1082      1086
      1083      1081      1084      1089      1083      1081      1084      1090
      1083      1087      1092      1085      1083      1087      1092      1099
      1083      1088      1095      1089      1083      1088      1095      1100
      1084      1081      1082      1085      1084      1081      1082      1086
      1084      1081      1083      1087      1084      1081      1083      1088
      1084      1089      1095      1088      1084      1089      1095      1100
      1084      1089      1096      1101      1084      1089      1096      1102
      1085      1091      1097      1103      1085      1091      1097      1104
      1085      1092      1087      1093      1085      1092      1099      1103
      1085      1092      1099      1105      1086      1082      1085      1091
      1086      1082      1085      1092      1087      1083      1088      1094
      1087      1083      1088      1095      1087      1092      1085      1091
      1087      1092      1099      1103      1087      1092      1099      1105
      1088      1083      1087      1092      1088      1083      1087      1093
      1088      1095      1089      1096      1088      1095      1100      1106
      1088      1095      1100      1107      1089      1095      1088      1094
      1089      1095      1100      1106      1089      1095      1100      1107
      1089      1096      1101      1107      1089      1096      1101      1108
      1090      1084      1089      1095      1090      1084      1089      1096
      1091      1085      1092      1099      1091      1097      1103      1099
      1091      1097      1103      1109      1092      1085      1091      1097
      1092      1085      1091      1098      1092      1099      1103      1097
      1092      1099      1103      1109      1093      1087      1092      1099
      1094      1088      1095      1100      1095      1089      1096      1101
      1095      1089      1096      1102      1095      1100      1107      1101
      1095      1100      1107      1110      1096      1089      1095      1100
      1096      1101      1107      1100      1096      1101      1107      1110
      1096      1101      1108      1111      1096      1101      1108      1112
      1097      1103      1099      1105      1098      1091      1097      1103
      1098      1091      1097      1104      1099      1103      1097      1104
      1100      1107      1101      1108      1100      1107      1110      1113
      1100      1107      1110      1114      1101      1107      1100      1106
      1101      1107      1110      1113      1101      1107      1110      1114
      1101      1108      1111      1113      1101      1108      1111      1115
      1102      1096      1101      1107      1102      1096      1101      1108
      1104      1097      1103      1109      1105      1099      1103      1109
      1106      1100      1107      1110      1107      1101      1108      1111
      1107      1101      1108      1112      1107      1110      1113      1111
      1107      1110      1113      1116      1108      1101      1107      1110
      1108      1111      1113      1110      1108      1111      1113      1116
      1110      1113      1111      1115      1111      1113      1110      1114
      1112      1108      1111      1113      1112      1108      1111      1115
      1114      1110      1113      1116      1115      1111      1113      1116
      1117      1118      1121      1127      1117      1118      1121      1128
      1117      1119      1123      1128      1117      1119      1123      1129
      1117      1119      1124      1130      1117      1119      1124      1131
      1117      1120      1125      1131      1117      1120      1125      1132
      1118      1117      1119      1123      1118      1117      1119      1124
      1118      1117      1120      1125      1118      1117      1120      1126
      1118      1121      1127      1133      1118      1121      1127      1134
      1118      1121      1128      1123      1118      1121      1128      1135
      1119      1117      1118      1121      1119      1117      1118      1122
      1119      1117      1120      1125      1119      1117      1120      1126
      1119      1123      1128      1121      1119      1123      1128      1135
      1119      1124      1131      1125      1119      1124      1131      1136
      1120      1117      1118      1121      1120      1117      1118      1122
      1120      1117      1119      1123      1120      1117      1119      1124
      1120      1125      1131      1124      1120      1125      1131      1136
      1120      1125      1132      1137      1120      1125      1132      1138
      1121      1127      1133      1139      1121      1127      1133      1140
      1121      1128      1123      1129      1121      1128      1135      1139
      1121      1128      1135      1141      1122      1118      1121      1127
      1122      1118      1121      1128      1123      1119      1124      1130
      1123      1119      1124      1131      1123      1128      1121      1127
      1123      1128      1135      1139      1123      1128      1135      1141
      1124      1119      1123      1128      1124      1119      1123      1129
      1124      1131      1125      1132      1124      1131      1136      1142
      1124      1131      1136      1143      1125      1131      1124      1130
      1125      1131      1136      1142      1125      1131      1136      1143
      1125      1132      1137      1143      1125      1132      1137      1144
      1126      1120      1125      1131      1126      1120      1125      1132
      1127      1121      1128      1135      1127      1133      1139      1135
      1127      1133      1139      1145      1128      1121      1127      1133
      1128      1121      1127      1134      1128      1135      1139      1133
      1128      1135      1139      1145      1129      1123      1128      1135
      1130      1124      1131      1136      1131      1125      1132      1137
      1131      1125      1132      1138      1131      1136      1143      1137
      1131      1136      1143      1146      1132      1125      1131      1136
      1132      1137      1143      1136      1132      1137      1143      1146
      1132      1137      1144      1147      1132      1137      1144      1148
      1133      1139      1135      1141      1134      1127      1133      1139
      1134      1127      1133      1140      1135      1139      1133      1140
      1136      1143      1137      1144      1136      1143      1146      1149
      1136      1143      1146      1150      1137      1143      1136      1142
      1137      1143      1146      1149      1137      1143      1146      1150
      1137      1144      1147      1149      1137      1144      1147      1151
      1138      1132      1137      1143      1138      1132      1137      1144
      1140      1133      1139      1145      1141      1135      1139      1145
      1142      1136      1143      1146      1143      1137      1144      1147
      1143      1137      1144      1148      1143      1146      1149      1147
      1143      1146      1149      1152      1144      1137      1143      1146
      1144      1147      1149      1146      1144      1147      1149      1152
      1146      1149      1147      1151      1147      1149      1146      1150
      1148      1144      1147      1149      1148      1144      1147      1151
      1150      1146      1149      1152      1151      1147      1149      1152
      1153      1154      1157      1163      1153      1154      1157      1164
      1153      1155      1159      1164      1153      1155      1159      1165
      1153      1155      1160      1166      1153      1155      1160      1167
      1153      1156      1161      1167      1153      1156      1161      1168
      1154      1153      1155      1159      1154      1153      1155      1160
      1154      1153      1156      1161      1154      1153      1156      1162
      1154      1157      1163      1169      1154      1157      1163      1170
      1154      1157      1164      1159      1154      1157      1164      1171
      1155      1153      1154      1157      1155      1153      1154      1158
      1155      1153      1156      1161      1155      1153      1156      1162
      1155      1159      1164      1157      1155      1159      1164      1171
      1155      1160      1167      1161      1155      1160      1167      1172
      1156      1153      1154      1157      1156      1153      1154      1158
      1156      1153      1155      1159      1156      1153      1155      1160
      1156      1161      1167      1160      1156      1161      1167      1172
      1156      1161      1168      1173      1156      1161      1168      1174
      1157      1163      1169      1175      1157      1163      1169      1176
      1157      1164      1159      1165      1157      1164      1171      1175
      1157      1164      1171      1177      1158      1154      1157      1163
      1158      1154      1157      1164      1159      1155      1160      1166
      1159      1155      1160      1167      1159      1164      1157      1163
      1159      1164      1171      1175      1159      1164      1171      1177
      1160      1155      1159      1164      1160      1155      1159      1165
      1160      1167      1161      1168      1160      1167      1172      1178
      1160      1167      1172      1179      1161      1167      1160      1166
      1161      1167      1172      1178      1161      1167      1172      1179
      1161      1168      1173      1179      1161      1168      1173      1180
      1162      1156      1161      1167      1162      1156      1161      1168
      1163      1157      1164      1171      1163      1169      1175      1171
      1163      1169      1175      1181      1164      1157      1163      1169
      1164      1157      1163      1170      1164      1171      1175      1169
      1164      1171      1175      1181      1165      1159      1164      1171
      1166      1160      1167      1172      1167      1161      1168      1173
      1167      1161      1168      1174      1167      1172      1179      1173
      1167      1172      1179      1182      1168      1161      1167      1172
      1168      1173      1179      1172      1168      1173      1179      1182
      1168      1173      1180      1183      1168      1173      1180      1184
      1169      1175      1171      1177      1170      1163      1169      1175
      1170      1163      1169      1176      1171      1175      1169      1176
      1172      1179      1173      1180      1172      1179      1182      1185
      1172      1179      1182      1186      1173      1179      1172      1178
      1173      1179      1182      1185      1173      1179      1182      1186
      1173      1180      1183      1185      1173      1180      1183      1187
      1174      1168      1173      1179      1174      1168      1173      1180
      1176      1169      1175      1181      1177      1171      1175      1181
      1178      1172      1179      1182      1179      1173      1180      1183
      1179      1173      1180      1184      1179      1182      1185      1183
      1179      1182      1185      1188      1180      1173      1179      1182
      1180      1183      1185      1182      1180      1183      1185      1188
      1182      1185      1183      1187      1183      1185      1182      1186
      1184      1180      1183      1185      1184      1180      1183      1187
      1186      1182      1185      1188      1187      1183      1185      1188
      1189      1190      1193      1199      1189      1190      1193      1200
      1189      1191      1195      1200      1189      1191      1195      1201
      1189      1191      1196      1202      1189      1191      1196      1203
      1189      1192      1197      1203      1189      1192      1197      1204
      1190      1189      1191      1195      1190      1189      1191      1196
      1190      1189      1192      1197      1190      1189      1192      1198
      1190      1193      1199      1205      1190      1193      1199      1206
      1190      1193      1200      1195      1190      1193      1200      1207
      1191      1189      1190      1193      1191      1189      1190      1194
      1191      1189      1192      1197      1191      1189      1192      1198
      1191      1195      1200      1193      1191      1195      1200      1207
      1191      1196      1203      1197      1191      1196      1203      1208
      1192      1189      1190      1193      1192      1189      1190      1194
      1192      1189      1191      1195      1192      1189      1191      1196
      1192      1197      1203      1196      1192      1197      1203      1208
      1192      1197      1204      1209      1192      1197      1204      1210
      1193      1199      1205      1211      1193      1199      1205      1212
      1193      1200      1195      1201      1193      1200      1207      1211
      1193      1200      1207      1213      1194      1190      1193      1199
      1194      1190      1193      1200      1195      1191      1196      1202
      1195      1191      1196      1203      1195      1200      1193      1199
      1195      1200      1207      1211      1195      1200      1207      1213
      1196      1191      1195      1200      1196      1191      1195      1201
      1196      1203      1197      1204      1196      1203      1208      1214
      1196      1203      1208      1215      1197      1203      1196      1202
      1197      1203      1208      1214      1197      1203      1208      1215
      1197      1204      1209      1215      1197      1204      1209      1216
      1198      1192      1197      1203      1198      1192      1197      1204
      1199      1193      1200      1207      1199      1205      1211      1207
      1199      1205      1211      1217      1200      1193      1199      1205
      1200      1193      1199      1206      1200      1207      1211      1205
      1200      1207      1211      1217      1201      1195      1200      1207
      1202      1196      1203      1208      1203      1197      1204      1209
      1203      1197      1204      1210      1203      1208      1215      1209
      1203      1208      1215      1218      1204      1197      1203      1208
      1204      1209      1215      1208      1204      1209      1215      1218
      1204      1209      1216      1219      1204      1209      1216      1220
      1205      1211      1207      1213      1206      1199      1205      1211
      1206      1199      1205      1212      1207      1211      1205      1212
      1208      1215      1209      1216      1208      1215      1218      1221
      1208      1215      1218      1222      1209      1215      1208      1214
      1209      1215      1218      1221      1209      1215      1218      1222
      1209      1216      1219      1221      1209      1216      1219      1223
      1210      1204      1209      1215      1210      1204      1209      1216
      1212      1205      1211      1217      1213      1207      1211      1217
      1214      1208      1215      1218      1215      1209      1216      1219
      1215      1209      1216      1220      1215      1218      1221      1219
      1215      1218      1221      1224      1216      1209      1215      1218
      1216      1219      1221      1218      1216      1219      1221      1224
      1218      1221      1219      1223      1219      1221      1218      1222
      1220      1216      1219      1221      1220      1216      1219      1223
      1222      1218      1221      1224      1223      1219      1221      1224
      1225      1226      1229      1235      1225      1226      1229      1236
      1225      1227      1231      1236      1225      1227      1231      1237
      1225      1227      1232      1238      1225      1227      1232      1239
      1225      1228      1233      1239      1225      1228      1233      1240
      1226      1225      1227      1231      1226      1225      1227      1232
      1226      1225      1228      1233      1226      1225      1228      1234
      1226      1229      1235      1241      1226      1229      1235      1242
      1226      1229      1236      1231      1226      1229      1236      1243
      1227      1225      1226      1229      1227      1225      1226      1230
      1227      1225      1228      1233      1227      1225      1228      1234
      1227      1231      1236      1229      1227      1231      1236      1243
      1227      1232      1239      1233      1227      1232      1239      1244
      1228      1225      1226      1229      1228      1225      1226      1230
      1228      1225      1227      1231      1228      1225      1227      1232
      1228      1233      1239      1232      1228      1233      1239      1244
      1228      1233      1240      1245      1228      1233      1240      1246
      1229      1235      1241      1247      1229      1235      1241      1248
      1229      1236      1231      1237      1229      1236      1243      1247
      1229      1236      1243      1249      1230      1226      1229      1235
      1230      1226      1229      1236      1231      1227      1232      1238
      1231      1227      1232      1239      1231      1236      1229      1235
      1231      1236      1243      1247      1231      1236      1243      1249
      1232      1227      1231      1236      1232      1227      1231      1237
      1232      1239      1233      1240      1232      1239      1244      1250
      1232      1239      1244      1251      1233      1239      1232      1238
      1233      1239      1244      1250      1233      1239      1244      1251
      1233      1240      1245      1251      1233      1240      1245      1252
      1234      1228      1233      1239      1234      1228      1233      1240
      1235      1229      1236      1243      1235      1241      1247      1243
      1235      1241      1247      1253      1236      1229      1235      1241
      1236      1229      1235      1242      1236      1243      1247      1241
      1236      1243      1247      1253      1237      1231      1236      1243
      1238      1232      1239      1244      1239      1233      1240      1245
      1239      1233      1240      1246      1239      1244      1251      1245
      1239      1244      1251      1254      1240      1233      1239      1244
      1240      1245      1251      1244      1240      1245      1251      1254
      1240      1245      1252      1255      1240      1245      1252      1256
      1241      1247      1243      1249      1242      1235      1241      1247
      1242      1235      1241      1248      1243      1247      1241      1248
      1244      1251      1245      1252      1244      1251      1254      1257
      1244      1251      1254      1258      1245      1251      1244      1250
      1245      1251      1254      1257      1245      1251      1254      1258
      1245      1252      1255      1257      1245      1252      1255      1259
      1246      1240      1245      1251      1246      1240      1245      1252
      1248      1241      1247      1253      1249      1243      1247      1253
      1250      1244      1251      1254      1251      1245      1252      1255
      1251      1245      1252      1256      1251      1254      1257      1255
      1251      1254      1257      1260      1252      1245      1251      1254
      1252      1255      1257      1254      1252      1255      1257      1260
      1254      1257      1255      1259      1255      1257      1254      1258
      1256      1252      1255      1257      1256      1252      1255      1259
      1258      1254      1257      1260      1259      1255      1257      1260
      1261      1262      1265      1271      1261      1262      1265      1272
      1261      1263      1267      1272      1261      1263      1267      1273
      1261      1263      1268      1274      1261      1263      1268      1275
      1261      1264      1269      1275      1261      1264      1269      1276
      1262      1261      1263      1267      1262      1261      1263      1268
      1262      1261      1264      1269      1262      1261      1264      1270
      1262      1265      1271      1277      1262      1265      1271      1278
      1262      1265      1272      1267      1262      1265      1272      1279
      1263      1261      1262      1265      1263      1261      1262      1266
      1263      1261      1264      1269      1263      1261      1264      1270
      1263      1267      1272      1265      1263      1267      1272      1279
      1263      1268      1275      1269      1263      1268      1275      1280
      1264      1261      1262      1265      1264      1261      1262      1266
      1264      1261      1263      1267      1264      1261      1263      1268
      1264      1269      1275      1268      1264      1269      1275      1280
      1264      1269      1276      1281      1264      1269      1276      1282
      1265      1271      1277      1283      1265      1271      1277      1284
      1265      1272      1267      1273      1265      1272      1279      1283
      1265      1272      1279      1285      1266      1262      1265      1271
      1266      1262      1265      1272      1267      1263      1268      1274
      1267      1263      1268      1275      1267      1272      1265      1271
      1267      1272      1279      1283      1267      1272      1279      1285
      1268      1263      1267      1272      1268      1263      1267      1273
      1268      1275      1269      1276      1268      1275      1280      1286
      1268      1275      1280      1287      1269      1275      1268      1274
      1269      1275      1280      1286      1269      1275      1280      1287
      1269      1276      1281      1287      1269      1276      1281      1288
      1270      1264      1269      1275      1270      1264      1269      1276
      1271      1265      1272      1279      1271      1277      1283      1279
      1271      1277      1283      1289      1272      1265      1271      1277
      1272      1265      1271      1278      1272      1279      1283      1277
      1272      1279      1283      1289      1273      1267      1272      1279
      1274      1268      1275      1280      1275      1269      1276      1281
      1275      1269      1276      1282      1275      1280      1287      1281
      1275      1280      1287      1290      1276      1269      1275      1280
      1276      1281      1287      1280      1276      1281      1287      1290
      1276      1281      1288      1291      1276      1281      1288      1292
      1277      1283      1279      1285      1278      1271      1277      1283
      1278      1271      1277      1284      1279      1283      1277      1284
      1280      1287      1281      1288      1280      1287      1290      1293
      1280      1287      1290      1294      1281      1287      1280      1286
      1281      1287      1290      1293      1281      1287      1290      1294
      1281      1288      1291      1293      1281      1288      1291      1295
      1282      1276      1281      1287      1282      1276      1281      1288
      1284      1277      1283      1289      1285      1279      1283      1289
      1286      1280      1287      1290      1287      1281      1288      1291
      1287      1281      1288      1292      1287      1290      1293      1291
      1287      1290      1293      1296      1288      1281      1287      1290
      1288      1291      1293      1290      1288      1291      1293      1296
      1290      1293      1291      1295      1291      1293      1290      1294
      1292      1288      1291      1293      1292      1288      1291      1295
      1294      1290      1293      1296      1295      1291      1293      1296
      1297      1298      1301      1307      1297      1298      1301      1308
      1297      1299      1303      1308      1297      1299      1303      1309
      1297      1299      1304      1310      1297      1299      1304      1311
      1297      1300      1305      1311      1297      1300      1305      1312
      1298      1297      1299      1303      1298      1297      1299      1304
      1298      1297      1300      1305      1298      1297      1300      1306
      1298      1301      1307      1313      1298      1301      1307      1314
      1298      1301      1308      1303      1298      1301      1308      1315
      1299      1297      1298      1301      1299      1297      1298      1302
      1299      1297      1300      1305      1299      1297      1300      1306
      1299      1303      1308      1301      1299      1303      1308      1315
      1299      1304      1311      1305      1299      1304      1311      1316
      1300      1297      1298      1301      1300      1297      1298      1302
      1300      1297      1299      1303      1300      1297      1299      1304
      1300      1305      1311      1304      1300      1305      1311      1316
      1300      1305      1312      1317      1300      1305      1312      1318
      1301      1307      1313      1319      1301      1307      1313      1320
      1301      1308      1303      1309      1301      1308      1315      1319
      1301      1308      1315      1321      1302      1298      1301      1307
      1302      1298      1301      1308      1303      1299      1304      1310
      1303      1299      1304      1311      1303      1308      1301      1307
      1303      1308      1315      1319      1303      1308      1315      1321
      1304      1299      1303      1308      1304      1299      1303      1309
      1304      1311      1305      1312      1304      1311      1316      1322
      1304      1311      1316      1323      1305      1311      1304      1310
      1305      1311      1316      1322      1305      1311      1316      1323
      1305      1312      1317      1323      1305      1312      1317      1324
      1306      1300      1305      1311      1306      1300      1305      1312
      1307      1301      1308      1315      1307      1313      1319      1315
      1307      1313      1319      1325      1308      1301      1307      1313
      1308      1301      1307      1314      1308      1315      1319      1313
      1308      1315      1319      1325      1309      1303      1308      1315
      1310      1304      1311      1316      1311      1305      1312      1317
      1311      1305      1312      1318      1311      1316      1323      1317
      1311      1316      1323      1326      1312      1305      1311      1316
      1312      1317      1323      1316      1312      1317      1323      1326
      1312      1317      1324      1327      1312      1317      1324      1328
      1313      1319      1315      1321      1314      1307      1313      1319
      1314      1307      1313      1320      1315      1319      1313      1320
      1316      1323      1317      1324      1316      1323      1326      1329
      1316      1323      1326      1330      1317      1323      1316      1322
      1317      1323      1326      1329      1317      1323      1326      1330
      1317      1324      1327      1329      1317      1324      1327      1331
      1318      1312      1317      1323      1318      1312      1317      1324
      1320      1313      1319      1325      1321      1315      1319      1325
      1322      1316      1323      1326      1323      1317      1324      1327
      1323      1317      1324      1328      1323      1326      1329      1327
      1323      1326      1329      1332      1324      1317      1323      1326
      1324      1327      1329      1326      1324      1327      1329      1332
      1326      1329      1327      1331      1327      1329      1326      1330
      1328      1324      1327      1329      1328      1324      1327      1331
      1330      1326      1329      1332      1331      1327      1329      1332
      1333      1334      1337      1343      1333      1334      1337      1344
      1333      1335      1339      1344      1333      1335      1339      1345
      1333      1335      1340      1346      1333      1335      1340      1347
      1333      1336      1341      1347      1333      1336      1341      1348
      1334      1333      1335      1339      1334      1333      1335      1340
      1334      1333      1336      1341      1334      1333      1336      1342
      1334      1337      1343      1349      1334      1337      1343      1350
      1334      1337      1344      1339      1334      1337      1344      1351
      1335      1333      1334      1337      1335      1333      1334      1338
      1335      1333      1336      1341      1335      1333      1336      1342
      1335      1339      1344      1337      1335      1339      1344      1351
      1335      1340      1347      1341      1335      1340      1347      1352
      1336      1333      1334      1337      1336      1333      1334      1338
      1336      1333      1335      1339      1336      1333      1335      1340
      1336      1341      1347      1340      1336      1341      1347      1352
      1336      1341      1348      1353      1336      1341      1348      1354
      1337      1343      1349      1355      1337      1343      1349      1356
      1337      1344      1339      1345      1337      1344      1351      1355
      1337      1344      1351      1357      1338      1334      1337      1343
      1338      1334      1337      1344      1339      1335      1340      1346
      1339      1335      1340      1347      1339      1344      1337      1343
      1339      1344      1351      1355      1339      1344      1351      1357
      1340      1335      1339      1344      1340      1335      1339      1345
      1340      1347      1341      1348      1340      1347      1352      1358
      1340      1347      1352      1359      1341      1347      1340      1346
      1341      1347      1352      1358      1341      1347      1352      1359
      1341      1348      1353      1359      1341      1348      1353      1360
      1342      1336      1341      1347      1342      1336      1341      1348
      1343      1337      1344      1351      1343      1349      1355      1351
      1343      1349      1355      1361      1344      1337      1343      1349
      1344      1337      1343      1350      1344      1351      1355      1349
      1344      1351      1355      1361      1345      1339      1344      1351
      1346      1340      1347      1352      1347      1341      1348      1353
      1347      1341      1348      1354      1347      1352      1359      1353
      1347      1352      1359      1362      1348      1341      1347      1352
      1348      1353      1359      1352      1348      1353      1359      1362
      1348      1353      1360      1363      1348      1353      1360      1364
      1349      1355      1351      1357      1350      1343      1349      1355
      1350      1343      1349      1356      1351      1355      1349      1356
      1352      1359      1353      1360      1352      1359      1362      1365
      1352      1359      1362      1366      1353      1359      1352      1358
      1353      1359      1362      1365      1353      1359      1362      1366
      1353      1360      1363      1365      1353      1360      1363      1367
      1354      1348      1353      1359      1354      1348      1353      1360
      1356      1349      1355      1361      1357      1351      1355      1361
      1358      1352      1359      1362      1359      1353      1360      1363
      1359      1353      1360      1364      1359      1362      1365      1363
      1359      1362      1365      1368      1360      1353      1359      1362
      1360      1363      1365      1362      1360      1363      1365      1368
      1362      1365      1363      1367      1363      1365      1362      1366
      1364      1360      1363      1365      1364      1360      1363      1367
      1366      1362      1365      1368      1367      1363      1365      1368
      1369      1370      1373      1379      1369      1370      1373      1380
      1369      1371      1375      1380      1369      1371      1375      1381
      1369      1371      1376      1382      1369      1371      1376      1383
      1369      1372      1377      1383      1369      1372      1377      1384
      1370      1369      1371      1375      1370      1369      1371      1376
      1370      1369      1372      1377      1370      1369      1372      1378
      1370      1373      1379      1385      1370      1373      1379      1386
      1370      1373      1380      1375      1370      1373      1380      1387
      1371      1369      1370      1373      1371      1369      1370      1374
      1371      1369      1372      1377      1371      1369      1372      1378
      1371      1375      1380      1373      1371      1375      1380      1387
      1371      1376      1383      1377      1371      1376      1383      1388
      1372      1369      1370      1373      1372      1369      1370      1374
      1372      1369      1371      1375      1372      1369      1371      1376
      1372      1377      1383      1376      1372      1377      1383      1388
      1372      1377      1384      1389      1372      1377      1384      1390
      1373      1379      1385      1391      1373      1379      1385      1392
      1373      1380      1375      1381      1373      1380      1387      1391
      1373      1380      1387      1393      1374      1370      1373      1379
      1374      1370      1373      1380      1375      1371      1376      1382
      1375      1371      1376      1383      1375      1380      1373      1379
      1375      1380      1387      1391      1375      1380      1387      1393
      1376      1371      1375      1380      1376      1371      1375      1381
      1376      1383      1377      1384      1376      1383      1388      1394
      1376      1383      1388      1395      1377      1383      1376      1382
      1377      1383      1388      1394      1377      1383      1388      1395
      1377      1384      1389      1395      1377      1384      1389      1396
      1378      1372      1377      1383      1378      1372      1377      1384
      1379      1373      1380      1387      1379      1385      1391      1387
      1379      1385      1391      1397      1380      1373      1379      1385
      1380      1373      1379      1386      1380      1387      1391      1385
      1380      1387      1391      1397      1381      1375      1380      1387
      1382      1376      1383      1388      1383      1377      1384      1389
      1383      1377      1384      1390      1383      1388      1395      1389
      1383      1388      1395      1398      1384      1377      1383      1388
      1384      1389      1395      1388      1384      1389      1395      1398
      1384      1389      1396      1399      1384      1389      1396      1400
      1385      1391      1387      1393      1386      1379      1385      1391
      1386      1379      1385      1392      1387      1391      1385      1392
      1388      1395      1389      1396      1388      1395      1398      1401
      1388      1395      1398      1402      1389      1395      1388      1394
      1389      1395      1398      1401      1389      1395      1398      1402
      1389      1396      1399      1401      1389      1396      1399      1403
      1390      1384      1389      1395      1390      1384      1389      1396
      1392      1385      1391      1397      1393      1387      1391      1397
      1394      1388      1395      1398      1395      1389      1396      1399
      1395      1389      1396      1400      1395      1398      1401      1399
      1395      1398      1401      1404      1396      1389      1395      1398
      1396      1399      1401      1398      1396      1399      1401      1404
      1398      1401      1399      1403      1399      1401      1398      1402
      1400      1396      1399      1401      1400      1396      1399      1403
      1402      1398      1401      1404      1403      1399      1401      1404
      1405      1406      1409      1415      1405      1406      1409      1416
      1405      1407      1411      1416      1405      1407      1411      1417
      1405      1407      1412      1418      1405      1407      1412      1419
      1405      1408      1413      1419      1405      1408      1413      1420
      1406      1405      1407      1411      1406      1405      1407      1412
      1406      1405      1408      1413      1406      1405      1408      1414
      1406      1409      1415      1421      1406      1409      1415      1422
      1406      1409      1416      1411      1406      1409      1416      1423
      1407      1405      1406      1409      1407      1405      1406      1410
      1407      1405      1408      1413      1407      1405      1408      1414
      1407      1411      1416      1409      1407      1411      1416      1423
      1407      1412      1419      1413      1407      1412      1419      1424
      1408      1405      1406      1409      1408      1405      1406      1410
      1408      1405      1407      1411      1408      1405      1407      1412
      1408      1413      1419      1412      1408      1413      1419      1424
      1408      1413      1420      1425      1408      1413      1420      1426
      1409      1415      1421      1427      1409      1415      1421      1428
      1409      1416      1411      1417      1409      1416      1423      1427
      1409      1416      1423      1429      1410      1406      1409      1415
      1410      1406      1409      1416      1411      1407      1412      1418
      1411      1407      1412      1419      1411      1416      1409      1415
      1411      1416      1423      1427      1411      1416      1423      1429
      1412      1407      1411      1416      1412      1407      1411      1417
      1412      1419      1413      1420      1412      1419      1424      1430
      1412      1419      1424      1431      1413      1419      1412      1418
      1413      1419      1424      1430      1413      1419      1424      1431
      1413      1420      1425      1431      1413      1420      1425      1432
      1414      1408      1413      1419      1414      1408      1413      1420
      1415      1409      1416      1423      1415      1421      1427      1423
      1415      1421      1427      1433      1416      1409      1415      1421
      1416      1409      1415      1422      1416      1423      1427      1421
      1416      1423      1427      1433      1417      1411      1416      1423
      1418      1412      1419      1424      1419      1413      1420      1425
      1419      1413      1420      1426      1419      1424      1431      1425
      1419      1424      1431      1434      1420      1413      1419      1424
      1420      1425      1431      1424      1420      1425      1431      1434
      1420      1425      1432      1435      1420      1425      1432      1436
      1421      1427      1423      1429      1422      1415      1421      1427
      1422      1415      1421      1428      1423      1427      1421      1428
      1424      1431      1425      1432      1424      1431      1434      1437
      1424      1431      1434      1438      1425      1431      1424      1430
      1425      1431      1434      1437      1425      1431      1434      1438
      1425      1432      1435      1437      1425      1432      1435      1439
      1426      1420      1425      1431      1426      1420      1425      1432
      1428      1421      1427      1433      1429      1423      1427      1433
      1430      1424      1431      1434      1431      1425      1432      1435
      1431      1425      1432      1436      1431      1434      1437      1435
      1431      1434      1437      1440      1432      1425      1431      1434
      1432      1435      1437      1434      1432      1435      1437      1440
      1434      1437      1435      1439      1435      1437      1434      1438
      1436      1432      1435      1437      1436      1432      1435      1439
      1438      1434      1437      1440      1439      1435      1437      1440
      1441      1442      1445      1451      1441      1442      1445      1452
      1441      1443      1447      1452      1441      1443      1447      1453
      1441      1443      1448      1454      1441      1443      1448      1455
      1441      1444      1449      1455      1441      1444      1449      1456
      1442      1441      1443      1447      1442      1441      1443      1448
      1442      1441      1444      1449      1442      1441      1444      1450
      1442      1445      1451      1457      1442      1445      1451      1458
      1442      1445      1452      1447      1442      1445      1452      1459
      1443      1441      1442      1445      1443      1441      1442      1446
      1443      1441      1444      1449      1443      1441      1444      1450
      1443      1447      1452      1445      1443      1447      1452      1459
      1443      1448      1455      1449      1443      1448      1455      1460
      1444      1441      1442      1445      1444      1441      1442      1446
      1444      1441      1443      1447      1444      1441      1443      1448
      1444      1449      1455      1448      1444      1449      1455      1460
      1444      1449      1456      1461      1444      1449      1456      1462
      1445      1451      1457      1463      1445      1451      1457      1464
      1445      1452      1447      1453      1445      1452      1459      1463
      1445      1452      1459      1465      1446      1442      1445      1451
      1446      1442      1445      1452      1447      1443      1448      1454
      1447      1443      1448      1455      1447      1452      1445      1451
      1447      1452      1459      1463      1447      1452      1459      1465
      1448      1443      1447      1452      1448      1443      1447      1453
      1448      1455      1449      1456      1448      1455      1460      1466
      1448      1455      1460      1467      1449      1455      1448      1454
      1449      1455      1460      1466      1449      1455      1460      1467
      1449      1456      1461      1467      1449      1456      1461      1468
      1450      1444      1449      1455      1450      1444      1449      1456
      1451      1445      1452      1459      1451      1457      1463      1459
      1451      1457      1463      1469      1452      1445      1451      1457
      1452      1445      1451      1458      1452      1459      1463      1457
      1452      1459      1463      1469      1453      1447      1452      1459
      1454      1448      1455      1460      1455      1449      1456      1461
      1455      1449      1456      1462      1455      1460      1467      1461
      1455      1460      1467      1470      1456      1449      1455      1460
      1456      1461      1467      1460      1456      1461      1467      1470
      1456      1461      1468      1471      1456      1461      1468      1472
      1457      1463      1459      1465      1458      1451      1457      1463
      1458      1451      1457      1464      1459      1463      1457      1464
      1460      1467      1461      1468      1460      1467      1470      1473
      1460      1467      1470      1474      1461      1467      1460      1466
      1461      1467      1470      1473      1461      1467      1470      1474
      1461      1468      1471      1473      1461      1468      1471      1475
      1462      1456      1461      1467      1462      1456      1461      1468
      1464      1457      1463      1469      1465      1459      1463      1469
      1466      1460      1467      1470      1467      1461      1468      1471
      1467      1461      1468      1472      1467      1470      1473      1471
      1467      1470      1473      1476      1468      1461      1467      1470
      1468      1471      1473      1470      1468      1471      1473      1476
      1470      1473      1471      1475      1471      1473      1470      1474
      1472      1468      1471      1473      1472      1468      1471      1475
      1474      1470      1473      1476      1475      1471      1473      1476
      1477      1478      1481      1487      1477      1478      1481      1488
      1477      1479      1483      1488      1477      1479      1483      1489
      1477      1479      1484      1490      1477      1479      1484      1491
      1477      1480      1485      1491      1477      1480      1485      1492
      1478      1477      1479      1483      1478      1477      1479      1484
      1478      1477      1480      1485      1478      1477      1480      1486
      1478      1481      1487      1493      1478      1481      1487      1494
      1478      1481      1488      1483      1478      1481      1488      1495
      1479      1477      1478      1481      1479      1477      1478      1482
      1479      1477      1480      1485      1479      1477      1480      1486
      1479      1483      1488      1481      1479      1483      1488      1495
      1479      1484      1491      1485      1479      1484      1491      1496
      1480      1477      1478      1481      1480      1477      1478      1482
      1480      1477      1479      1483      1480      1477      1479      1484
      1480      1485      1491      1484      1480      1485      1491      1496
      1480      1485      1492      1497      1480      1485      1492      1498
      1481      1487      1493      1499      1481      1487      1493      1500
      1481      1488      1483      1489      1481      1488      1495      1499
      1481      1488      1495      1501      1482      1478      1481      1487
      1482      1478      1481      1488      1483      1479      1484      1490
      1483      1479      1484      1491      1483      1488      1481      1487
      1483      1488      1495      1499      1483      1488      1495      1501
      1484      1479      1483      1488      1484      1479      1483      1489
      1484      1491      1485      1492      1484      1491      1496      1502
      1484      1491      1496      1503      1485      1491      1484      1490
      1485      1491      1496      1502      1485      1491      1496      1503
      1485      1492      1497      1503      1485      1492      1497      1504
      1486      1480      1485      1491      1486      1480      1485      1492
      1487      1481      1488      1495      1487      1493      1499      1495
      1487      1493      1499      1505      1488      1481      1487      1493
      1488      1481      1487      1494      1488      1495      1499      1493
      1488      1495      1499      1505      1489      1483      1488      1495
      1490      1484      1491      1496      1491      1485      1492      1497
      1491      1485      1492      1498      1491      1496      1503      1497
      1491      1496      1503      1506      1492      1485      1491      1496
      1492      1497      1503      1496      1492      1497      1503      1506
      1492      1497      1504      1507      1492      1497      1504      1508
      1493      1499      1495      1501      1494      1487      1493      1499
      1494      1487      1493      1500      1495      1499      1493      1500
      1496      1503      1497      1504      1496      1503      1506      1509
      1496      1503      1506      1510      1497      1503      1496      1502
      1497      1503      1506      1509      1497      1503      1506      1510
      1497      1504      1507      1509      1497      1504      1507      1511
      1498      1492      1497      1503      1498      1492      1497      1504
      1500      1493      1499      1505      1501      1495      1499      1505
      1502      1496      1503      1506      1503      1497      1504      1507
      1503      1497      1504      1508      1503      1506      1509      1507
      1503      1506      1509      1512      1504      1497      1503      1506
      1504      1507      1509      1506      1504      1507      1509      1512
      1506      1509      1507      1511      1507      1509      1506      1510
      1508      1504      1507      1509      1508      1504      1507      1511
      1510      1506      1509      1512      1511      1507      1509      1512
      1513      1514      1517      1523      1513      1514      1517      1524
      1513      1515      1519      1524      1513      1515      1519      1525
      1513      1515      1520      1526      1513      1515      1520      1527
      1513      1516      1521      1527      1513      1516      1521      1528
      1514      1513      1515      1519      1514      1513      1515      1520
      1514      1513      1516      1521      1514      1513      1516      1522
      1514      1517      1523      1529      1514      1517      1523      1530
      1514      1517      1524      1519      1514      1517      1524      1531
      1515      1513      1514      1517      1515      1513      1514      1518
      1515      1513      1516      1521      1515      1513      1516      1522
      1515      1519      1524      1517      1515      1519      1524      1531
      1515      1520      1527      1521      1515      1520      1527      1532
      1516      1513      1514      1517      1516      1513      1514      1518
      1516      1513      1515      1519      1516      1513      1515      1520
      1516      1521      1527      1520      1516      1521      1527      1532
      1516      1521      1528      1533      1516      1521      1528      1534
      1517      1523      1529      1535      1517      1523      1529      1536
      1517      1524      1519      1525      1517      1524      1531      1535
      1517      1524      1531      1537      1518      1514      1517      1523
      1518      1514      1517      1524      1519      1515      1520      1526
      1519      1515      1520      1527      1519      1524      1517      1523
      1519      1524      1531      1535      1519      1524      1531      1537
      1520      1515      1519      1524      1520      1515      1519      1525
      1520      1527      1521      1528      1520      1527      1532      1538
      1520      1527      1532      1539      1521      1527      1520      1526
      1521      1527      1532      1538      1521      1527      1532      1539
      1521      1528      1533      1539      1521      1528      1533      1540
      1522      1516      1521      1527      1522      1516      1521      1528
      1523      1517      1524      1531      1523      1529      1535      1531
      1523      1529      1535      1541      1524      1517      1523      1529
      1524      1517      1523      1530      1524      1531      1535      1529
      1524      1531      1535      1541      1525      1519      1524      1531
      1526      1520      1527      1532      1527      1521      1528      1533
      1527      1521      1528      1534      1527      1532      1539      1533
      1527      1532      1539      1542      1528      1521      1527      1532
      1528      1533      1539      1532      1528      1533      1539      1542
      1528      1533      1540      1543      1528      1533      1540      1544
      1529      1535      1531      1537      1530      1523      1529      1535
      1530      1523      1529      1536      1531      1535      1529      1536
      1532      1539      1533      1540      1532      1539      1542      1545
      1532      1539      1542      1546      1533      1539      1532      1538
      1533      1539      1542      1545      1533      1539      1542      1546
      1533      1540      1543      1545      1533      1540      1543      1547
      1534      1528      1533      1539      1534      1528      1533      1540
      1536      1529      1535      1541      1537      1531      1535      1541
      1538      1532      1539      1542      1539      1533      1540      1543
      1539      1533      1540      1544      1539      1542      1545      1543
      1539      1542      1545      1548      1540      1533      1539      1542
      1540      1543      1545      1542      1540      1543      1545      1548
      1542      1545      1543      1547      1543      1545      1542      1546
      1544      1540      1543      1545      1544      1540      1543      1547
      1546      1542      1545      1548      1547      1543      1545      1548
      1549      1550      1553      1559      1549      1550      1553      1560
      1549      1551      1555      1560      1549      1551      1555      1561
      1549      1551      1556      1562      1549      1551      1556      1563
      1549      1552      1557      1563      1549      1552      1557      1564
      1550      1549      1551      1555      1550      1549      1551      1556
      1550      1549      1552      1557      1550      1549      1552      1558
      1550      1553      1559      1565      1550      1553      1559      1566
      1550      1553      1560      1555      1550      1553      1560      1567
      1551      1549      1550      1553      1551      1549      1550      1554
      1551      1549      1552      1557      1551      1549      1552      1558
      1551      1555      1560      1553      1551      1555      1560      1567
      1551      1556      1563      1557      1551      1556      1563      1568
      1552      1549      1550      1553      1552      1549      1550      1554
      1552      1549      1551      1555      1552      1549      1551      1556
      1552      1557      1563      1556      1552      1557      1563      1568
      1552      1557      1564      1569      1552      1557      1564      1570
      1553      1559      1565      1571      1553      1559      1565      1572
      1553      1560      1555      1561      1553      1560      1567      1571
      1553      1560      1567      1573      1554      1550      1553      1559
      1554      1550      1553      1560      1555      1551      1556      1562
      1555      1551      1556      1563      1555      1560      1553      1559
      1555      1560      1567      1571      1555      1560      1567      1573
      1556      1551      1555      1560      1556      1551      1555      1561
      1556      1563      1557      1564      1556      1563      1568      1574
      1556      1563      1568      1575      1557      1563      1556      1562
      1557      1563      1568      1574      1557      1563      1568      1575
      1557      1564      1569      1575      1557      1564      1569      1576
      1558      1552      1557      1563      1558      1552      1557      1564
      1559      1553      1560      1567      1559      1565      1571      1567
      1559      1565      1571      1577      1560      1553      1559      1565
      1560      1553      1559      1566      1560      1567      1571      1565
      1560      1567      1571      1577      1561      1555      1560      1567
      1562      1556      1563      1568      1563      1557      1564      1569
      1563      1557      1564      1570      1563      1568      1575      1569
      1563      1568      1575      1578      1564      1557      1563      1568
      1564      1569      1575      1568      1564      1569      1575      1578
      1564      1569      1576      1579      1564      1569      1576      1580
      1565      1571      1567      1573      1566      1559      1565      1571
      1566      1559      1565      1572      1567      1571      1565      1572
      1568      1575      1569      1576      1568      1575      1578      1581
      1568      1575      1578      1582      1569      1575      1568      1574
      1569      1575      1578      1581      1569      1575      1578      1582
      1569      1576      1579      1581      1569      1576      1579      1583
      1570      1564      1569      1575      1570      1564      1569      1576
      1572      1565      1571      1577      1573      1567      1571      1577
      1574      1568      1575      1578      1575      1569      1576      1579
      1575      1569      1576      1580      1575      1578      1581      1579
      1575      1578      1581      1584      1576      1569      1575      1578
      1576      1579      1581      1578      1576      1579      1581      1584
      1578      1581      1579      1583      1579      1581      1578      1582
      1580      1576      1579      1581      1580      1576      1579      1583
      1582      1578      1581      1584      1583      1579      1581      1584
      1585      1586      1589      1595      1585      1586      1589      1596
      1585      1587      1591      1596      1585      1587      1591      1597
      1585      1587      1592      1598      1585      1587      1592      1599
      1585      1588      1593      1599      1585      1588      1593      1600
      1586      1585      1587      1591      1586      1585      1587      1592
      1586      1585      1588      1593      1586      1585      1588      1594
      1586      1589      1595      1601      1586      1589      1595      1602
      1586      1589      1596      1591      1586      1589      1596      1603
      1587      1585      1586      1589      1587      1585      1586      1590
      1587      1585      1588      1593      1587      1585      1588      1594
      1587      1591      1596      1589      1587      1591      1596      1603
      1587      1592      1599      1593      1587      1592      1599      1604
      1588      1585      1586      1589      1588      1585      1586      1590
      1588      1585      1587      1591      1588      1585      1587      1592
      1588      1593      1599      1592      1588      1593      1599      1604
      1588      1593      1600      1605      1588      1593      1600      1606
      1589      1595      1601      1607      1589      1595      1601      1608
      1589      1596      1591      1597      1589      1596      1603      1607
      1589      1596      1603      1609      1590      1586      1589      1595
      1590      1586      1589      1596      1591      1587      1592      1598
      1591      1587      1592      1599      1591      1596      1589      1595
      1591      1596      1603      1607      1591      1596      1603      1609
      1592      1587      1591      1596      1592      1587      1591      1597
      1592      1599      1593      1600      1592      1599      1604      1610
      1592      1599      1604      1611      1593      1599      1592      1598
      1593      1599      1604      1610      1593      1599      1604      1611
      1593      1600      1605      1611      1593      1600      1605      1612
      1594      1588      1593      1599      1594      1588      1593      1600
      1595      1589      1596      1603      1595      1601      1607      1603
      1595      1601      1607      1613      1596      1589      1595      1601
      1596      1589      1595      1602      1596      1603      1607      1601
      1596      1603      1607      1613      1597      1591      1596      1603
      1598      1592      1599      1604      1599      1593      1600      1605
      1599      1593      1600      1606      1599      1604      1611      1605
      1599      1604      1611      1614      1600      1593      1599      1604
      1600      1605      1611      1604      1600      1605      1611      1614
      1600      1605      1612      1615      1600      1605      1612      1616
      1601      1607      1603      1609      1602      1595      1601      1607
      1602      1595      1601      1608      1603      1607      1601      1608
      1604      1611      1605      1612      1604      1611      1614      1617
      1604      1611      1614      1618      1605      1611      1604      1610
      1605      1611      1614      1617      1605      1611      1614      1618
      1605      1612      1615      1617      1605      1612      1615      1619
      1606      1600      1605      1611      1606      1600      1605      1612
      1608      1601      1607      1613      1609      1603      1607      1613
      1610      1604      1611      1614      1611      1605      1612      1615
      1611      1605      1612      1616      1611      1614      1617      1615
      1611      1614      1617      1620      1612      1605      1611      1614
      1612      1615      1617      1614      1612      1615      1617      1620
      1614      1617      1615      1619      1615      1617      1614      1618
      1616      1612      1615      1617      1616      1612      1615      1619
      1618      1614      1617      1620      1619      1615      1617      1620
      1621      1622      1625      1631      1621      1622      1625      1632
      1621      1623      1627      1632      1621      1623      1627      1633
      1621      1623      1628      1634      1621      1623      1628      1635
      1621      1624      1629      1635      1621      1624      1629      1636
      1622      1621      1623      1627      1622      1621      1623      1628
      1622      1621      1624      1629      1622      1621      1624      1630
      1622      1625      1631      1637      1622      1625      1631      1638
      1622      1625      1632      1627      1622      1625      1632      1639
      1623      1621      1622      1625      1623      1621      1622      1626
      1623      1621      1624      1629      1623      1621      1624      1630
      1623      1627      1632      1625      1623      1627      1632      1639
      1623      1628      1635      1629      1623      1628      1635      1640
      1624      1621      1622      1625      1624      1621      1622      1626
      1624      1621      1623      1627      1624      1621      1623      1628
      1624      1629      1635      1628      1624      1629      1635      1640
      1624      1629      1636      1641      1624      1629      1636      1642
      1625      1631      1637      1643      1625      1631      1637      1644
      1625      1632      1627      1633      1625      1632      1639      1643
      1625      1632      1639      1645      1626      1622      1625      1631
      1626      1622      1625      1632      1627      1623      1628      1634
      1627      1623      1628      1635      1627      1632      1625      1631
      1627      1632      1639      1643      1627      1632      1639      1645
      1628      1623      1627      1632      1628      1623      1627      1633
      1628      1635      1629      1636      1628      1635      1640      1646
      1628      1635      1640      1647      1629      1635      1628      1634
      1629      1635      1640      1646      1629      1635      1640      1647
      1629      1636      1641      1647      1629      1636      1641      1648
      1630      1624      1629      1635      1630      1624      1629      1636
      1631      1625      1632      1639      1631      1637      1643      1639
      1631      1637      1643      1649      1632      1625      1631      1637
      1632      1625      1631      1638      1632      1639      1643      1637
      1632      1639      1643      1649      1633      1627      1632      1639
      1634      1628      1635      1640      1635      1629      1636      1641
      1635      1629      1636      1642      1635      1640      1647      1641
      1635      1640      1647      1650      1636      1629      1635      1640
      1636      1641      1647      1640      1636      1641      1647      1650
      1636      1641      1648      1651      1636      1641      1648      1652
      1637      1643      1639      1645      1638      1631      1637      1643
      1638      1631      1637      1644      1639      1643      1637      1644
      1640      1647      1641      1648      1640      1647      1650      1653
      1640      1647      1650      1654      1641      1647      1640      1646
      1641      1647      1650      1653      1641      1647      1650      1654
      1641      1648      1651      1653      1641      1648      1651      1655
      1642      1636      1641      1647      1642      1636      1641      1648
      1644      1637      1643      1649      1645      1639      1643      1649
      1646      1640      1647      1650      1647      1641      1648      1651
      1647      1641      1648      1652      1647      1650      1653      1651
      1647      1650      1653      1656      1648      1641      1647      1650
      1648      1651      1653      1650      1648      1651      1653      1656
      1650      1653      1651      1655      1651      1653      1650      1654
      1652      1648      1651      1653      1652      1648      1651      1655
      1654      1650      1653      1656      1655      1651      1653      1656
      1657      1658      1661      1667      1657      1658      1661      1668
      1657      1659      1663      1668      1657      1659      1663      1669
      1657      1659      1664      1670      1657      1659      1664      1671
      1657      1660      1665      1671      1657      1660      1665      1672
      1658      1657      1659      1663      1658      1657      1659      1664
      1658      1657      1660      1665      1658      1657      1660      1666
      1658      1661      1667      1673      1658      1661      1667      1674
      1658      1661      1668      1663      1658      1661      1668      1675
      1659      1657      1658      1661      1659      1657      1658      1662
      1659      1657      1660      1665      1659      1657      1660      1666
      1659      1663      1668      1661      1659      1663      1668      1675
      1659      1664      1671      1665      1659      1664      1671      1676
      1660      1657      1658      1661      1660      1657      1658      1662
      1660      1657      1659      1663      1660      1657      1659      1664
      1660      1665      1671      1664      1660      1665      1671      1676
      1660      1665      1672      1677      1660      1665      1672      1678
      1661      1667      1673      1679      1661      1667      1673      1680
      1661      1668      1663      1669      1661      1668      1675      1679
      1661      1668      1675      1681      1662      1658      1661      1667
      1662      1658      1661      1668      1663      1659      1664      1670
      1663      1659      1664      1671      1663      1668      1661      1667
      1663      1668      1675      1679      1663      1668      1675      1681
      1664      1659      1663      1668      1664      1659      1663      1669
      1664      1671      1665      1672      1664      1671      1676      1682
      1664      1671      1676      1683      1665      1671      1664      1670
      1665      1671      1676      1682      1665      1671      1676      1683
      1665      1672      1677      1683      1665      1672      1677      1684
      1666      1660      1665      1671      1666      1660      1665      1672
      1667      1661      1668      1675      1667      1673      1679      1675
      1667      1673      1679      1685      1668      1661      1667      1673
      1668      1661      1667      1674      1668      1675      1679      1673
      1668      1675      1679      1685      1669      1663      1668      1675
      1670      1664      1671      1676      1671      1665      1672      1677
      1671      1665      1672      1678      1671      1676      1683      1677
      1671      1676      1683      1686      1672      1665      1671      1676
      1672      1677      1683      1676      1672      1677      1683      1686
      1672      1677      1684      1687      1672      1677      1684      1688
      1673      1679      1675      1681      1674      1667      1673      1679
      1674      1667      1673      1680      1675      1679      1673      1680
      1676      1683      1677      1684      1676      1683      1686      1689
      1676      1683      1686      1690      1677      1683      1676      1682
      1677      1683      1686      1689      1677      1683      1686      1690
      1677      1684      1687      1689      1677      1684      1687      1691
      1678      1672      1677      1683      1678      1672      1677      1684
      1680      1673      1679      1685      1681      1675      1679      1685
      1682      1676      1683      1686      1683      1677      1684      1687
      1683      1677      1684      1688      1683      1686      1689      1687
      1683      1686      1689      1692      1684      1677      1683      1686
      1684      1687      1689      1686      1684      1687      1689      1692
      1686      1689      1687      1691      1687      1689      1686      1690
      1688      1684      1687      1689      1688      1684      1687      1691
      1690      1686      1689      1692      1691      1687      1689      1692
      1693      1694      1697      1703      1693      1694      1697      1704
      1693      1695      1699      1704      1693      1695      1699      1705
      1693      1695      1700      1706      1693      1695      1700      1707
      1693      1696      1701      1707      1693      1696      1701      1708
      1694      1693      1695      1699      1694      1693      1695      1700
      1694      1693      1696      1701      1694      1693      1696      1702
      1694      1697      1703      1709      1694      1697      1703      1710
      1694      1697      1704      1699      1694      1697      1704      1711
      1695      1693      1694      1697      1695      1693      1694      1698
      1695      1693      1696      1701      1695      1693      1696      1702
      1695      1699      1704      1697      1695      1699      1704      1711
      1695      1700      1707      1701      1695      1700      1707      1712
      1696      1693      1694      1697      1696      1693      1694      1698
      1696      1693      1695      1699      1696      1693      1695      1700
      1696      1701      1707      1700      1696      1701      1707      1712
      1696      1701      1708      1713      1696      1701      1708      1714
      1697      1703      1709      1715      1697      1703      1709      1716
      1697      1704      1699      1705      1697      1704      1711      1715
      1697      1704      1711      1717      1698      1694      1697      1703
      1698      1694      1697      1704      1699      1695      1700      1706
      1699      1695      1700      1707      1699      1704      1697      1703
      1699      1704      1711      1715      1699      1704      1711      1717
      1700      1695      1699      1704      1700      1695      1699      1705
      1700      1707      1701      1708      1700      1707      1712      1718
      1700      1707      1712      1719      1701      1707      1700      1706
      1701      1707      1712      1718      1701      1707      1712      1719
      1701      1708      1713      1719      1701      1708      1713      1720
      1702      1696      1701      1707      1702      1696      1701      1708
      1703      1697      1704      1711      1703      1709      1715      1711
      1703      1709      1715      1721      1704      1697      1703      1709
      1704      1697      1703      1710      1704      1711      1715      1709
      1704      1711      1715      1721      1705      1699      1704      1711
      1706      1700      1707      1712      1707      1701      1708      1713
      1707      1701      1708      1714      1707      1712      1719      1713
      1707      1712      1719      1722      1708      1701      1707      1712
      1708      1713      1719      1712      1708      1713      1719      1722
      1708      1713      1720      1723      1708      1713      1720      1724
      1709      1715      1711      1717      1710      1703      1709      1715
      1710      1703      1709      1716      1711      1715      1709      1716
      1712      1719      1713      1720      1712      1719      1722      1725
      1712      1719      1722      1726      1713      1719      1712      1718
      1713      1719      1722      1725      1713      1719      1722      1726
      1713      1720      1723      1725      1713      1720      1723      1727
      1714      1708      1713      1719      1714      1708      1713      1720
      1716      1709      1715      1721      1717      1711      1715      1721
      1718      1712      1719      1722      1719      1713      1720      1723
      1719      1713      1720      1724      1719      1722      1725      1723
      1719      1722      1725      1728      1720      1713      1719      1722
      1720      1723      1725      1722      1720      1723      1725      1728
      1722      1725      1723      1727      1723      1725      1722      1726
      1724      1720      1723      1725      1724      1720      1723      1727
      1726      1722      1725      1728      1727      1723      1725      1728
      1729      1730      1733      1739      1729      1730      1733      1740
      1729      1731      1735      1740      1729      1731      1735      1741
      1729      1731      1736      1742      1729      1731      1736      1743
      1729      1732      1737      1743      1729      1732      1737      1744
      1730      1729      1731      1735      1730      1729      1731      1736
      1730      1729      1732      1737      1730      1729      1732      1738
      1730      1733      1739      1745      1730      1733      1739      1746
      1730      1733      1740      1735      1730      1733      1740      1747
      1731      1729      1730      1733      1731      1729      1730      1734
      1731      1729      1732      1737      1731      1729      1732      1738
      1731      1735      1740      1733      1731      1735      1740      1747
      1731      1736      1743      1737      1731      1736      1743      1748
      1732      1729      1730      1733      1732      1729      1730      1734
      1732      1729      1731      1735      1732      1729      1731      1736
      1732      1737      1743      1736      1732      1737      1743      1748
      1732      1737      1744      1749      1732      1737      1744      1750
      1733      1739      1745      1751      1733      1739      1745      1752
      1733      1740      1735      1741      1733      1740      1747      1751
      1733      1740      1747      1753      1734      1730      1733      1739
      1734      1730      1733      1740      1735      1731      1736      1742
      1735      1731      1736      1743      1735      1740      1733      1739
      1735      1740      1747      1751      1735      1740      1747      1753
      1736      1731      1735      1740      1736      1731      1735      1741
      1736      1743      1737      1744      1736      1743      1748      1754
      1736      1743      1748      1755      1737      1743      1736      1742
      1737      1743      1748      1754      1737      1743      1748      1755
      1737      1744      1749      1755      1737      1744      1749      1756
      1738      1732      1737      1743      1738      1732      1737      1744
      1739      1733      1740      1747      1739      1745      1751      1747
      1739      1745      1751      1757      1740      1733      1739      1745
      1740      1733      1739      1746      1740      1747      1751      1745
      1740      1747      1751      1757      1741      1735      1740      1747
      1742      1736      1743      1748      1743      1737      1744      1749
      1743      1737      1744      1750      1743      1748      1755      1749
      1743      1748      1755      1758      1744      1737      1743      1748
      1744      1749      1755      1748      1744      1749      1755      1758
      1744      1749      1756      1759      1744      1749      1756      1760
      1745      1751      1747      1753      1746      1739      1745      1751
      1746      1739      1745      1752      1747      1751      1745      1752
      1748      1755      1749      1756      1748      1755      1758      1761
      1748      1755      1758      1762      1749      1755      1748      1754
      1749      1755      1758      1761      1749      1755      1758      1762
      1749      1756      1759      1761      1749      1756      1759      1763
      1750      1744      1749      1755      1750      1744      1749      1756
      1752      1745      1751      1757      1753      1747      1751      1757
      1754      1748      1755      1758      1755      1749      1756      1759
      1755      1749      1756      1760      1755      1758      1761      1759
      1755      1758      1761      1764      1756      1749      1755      1758
      1756      1759      1761      1758      1756      1759      1761      1764
      1758      1761      1759      1763      1759      1761      1758      1762
      1760      1756      1759      1761      1760      1756      1759      1763
      1762      1758      1761      1764      1763      1759      1761      1764
      1765      1766      1769      1775      1765      1766      1769      1776
      1765      1767      1771      1776      1765      1767      1771      1777
      1765      1767      1772      1778      1765      1767      1772      1779
      1765      1768      1773      1779      1765      1768      1773      1780
      1766      1765      1767      1771      1766      1765      1767      1772
      1766      1765      1768      1773      1766      1765      1768      1774
      1766      1769      1775      1781      1766      1769      1775      1782
      1766      1769      1776      1771      1766      1769      1776      1783
      1767      1765      1766      1769      1767      1765      1766      1770
      1767      1765      1768      1773      1767      1765      1768      1774
      1767      1771      1776      1769      1767      1771      1776      1783
      1767      1772      1779      1773      1767      1772      1779      1784
      1768      1765      1766      1769      1768      1765      1766      1770
      1768      1765      1767      1771      1768      1765      1767      1772
      1768      1773      1779      1772      1768      1773      1779      1784
      1768      1773      1780      1785      1768      1773      1780      1786
      1769      1775      1781      1787      1769      1775      1781      1788
      1769      1776      1771      1777      1769      1776      1783      1787
      1769      1776      1783      1789      1770      1766      1769      1775
      1770      1766      1769      1776      1771      1767      1772      1778
      1771      1767      1772      1779      1771      1776      1769      1775
      1771      1776      1783      1787      1771      1776      1783      1789
      1772      1767      1771      1776      1772      1767      1771      1777
      1772      1779      1773      1780      1772      1779      1784      1790
      1772      1779      1784      1791      1773      1779      1772      1778
      1773      1779      1784      1790      1773      1779      1784      1791
      1773      1780      1785      1791      1773      1780      1785      1792
      1774      1768      1773      1779      1774      1768      1773      1780
      1775      1769      1776      1783      1775      1781      1787      1783
      1775      1781      1787      1793      1776      1769      1775      1781
      1776      1769      1775      1782      1776      1783      1787      1781
      1776      1783      1787      1793      1777      1771      1776      1783
      1778      1772      1779      1784      1779      1773      1780      1785
      1779      1773      1780      1786      1779      1784      1791      1785
      1779      1784      1791      1794      1780      1773      1779      1784
      1780      1785      1791      1784      1780      1785      1791      1794
      1780      1785      1792      1795      1780      1785      1792      1796
      1781      1787      1783      1789      1782      1775      1781      1787
      1782      1775      1781      1788      1783      1787      1781      1788
      1784      1791      1785      1792      1784      1791      1794      1797
      1784      1791      1794      1798      1785      1791      1784      1790
      1785      1791      1794      1797      1785      1791      1794      1798
      1785      1792      1795      1797      1785      1792      1795      1799
      1786      1780      1785      1791      1786      1780      1785      1792
      1788      1781      1787      1793      1789      1783      1787      1793
      1790      1784      1791      1794      1791      1785      1792      1795
      1791      1785      1792      1796      1791      1794      1797      1795
      1791      1794      1797      1800      1792      1785      1791      1794
      1792      1795      1797      1794      1792      1795      1797      1800
      1794      1797      1795      1799      1795      1797      1794      1798
      1796      1792      1795      1797      1796      1792      1795      1799
      1798      1794      1797      1800      1799      1795      1797      1800
      1801      1802      1805      1811      1801      1802      1805      1812
      1801      1803      1807      1812      1801      1803      1807      1813
      1801      1803      1808      1814      1801      1803      1808      1815
      1801      1804      1809      1815      1801      1804      1809      1816
      1802      1801      1803      1807      1802      1801      1803      1808
      1802      1801      1804      1809      1802      1801      1804      1810
      1802      1805      1811      1817      1802      1805      1811      1818
      1802      1805      1812      1807      1802      1805      1812      1819
      1803      1801      1802      1805      1803      1801      1802      1806
      1803      1801      1804      1809      1803      1801      1804      1810
      1803      1807      1812      1805      1803      1807      1812      1819
      1803      1808      1815      1809      1803      1808      1815      1820
      1804      1801      1802      1805      1804      1801      1802      1806
      1804      1801      1803      1807      1804      1801      1803      1808
      1804      1809      1815      1808      1804      1809      1815      1820
      1804      1809      1816      1821      1804      1809      1816      1822
      1805      1811      1817      1823      1805      1811      1817      1824
      1805      1812      1807      1813      1805      1812      1819      1823
      1805      1812      1819      1825      1806      1802      1805      1811
      1806      1802      1805      1812      1807      1803      1808      1814
      1807      1803      1808      1815      1807      1812      1805      1811
      1807      1812      1819      1823      1807      1812      1819      1825
      1808      1803      1807      1812      1808      1803      1807      1813
      1808      1815      1809      1816      1808      1815      1820      1826
      1808      1815      1820      1827      1809      1815      1808      1814
      1809      1815      1820      1826      1809      1815      1820      1827
      1809      1816      1821      1827      1809      1816      1821      1828
      1810      1804      1809      1815      1810      1804      1809      1816
      1811      1805      1812      1819      1811      1817      1823      1819
      1811      1817      1823      1829      1812      1805      1811      1817
      1812      1805      1811      1818      1812      1819      1823      1817
      1812      1819      1823      1829      1813      1807      1812      1819
      1814      1808      1815      1820      1815      1809      1816      1821
      1815      1809      1816      1822      1815      1820      1827      1821
      1815      1820      1827      1830      1816      1809      1815      1820
      1816      1821      1827      1820      1816      1821      1827      1830
      1816      1821      1828      1831      1816      1821      1828      1832
      1817      1823      1819      1825      1818      1811      1817      1823
      1818      1811      1817      1824      1819      1823      1817      1824
      1820      1827      1821      1828      1820      1827      1830      1833
      1820      1827      1830      1834      1821      1827      1820      1826
      1821      1827      1830      1833      1821      1827      1830      1834
      1821      1828      1831      1833      1821      1828      1831      1835
      1822      1816      1821      1827      1822      1816      1821      1828
      1824      1817      1823      1829      1825      1819      1823      1829
      1826      1820      1827      1830      1827      1821      1828      1831
      1827      1821      1828      1832      1827      1830      1833      1831
      1827      1830      1833      1836      1828      1821      1827      1830
      1828      1831      1833      1830      1828      1831      1833      1836
      1830      1833      1831      1835      1831      1833      1830      1834
      1832      1828      1831      1833      1832      1828      1831      1835
      1834      1830      1833      1836      1835      1831      1833      1836
      1837      1838      1841      1847      1837      1838      1841      1848
      1837      1839      1843      1848      1837      1839      1843      1849
      1837      1839      1844      1850      1837      1839      1844      1851
      1837      1840      1845      1851      1837      1840      1845      1852
      1838      1837      1839      1843      1838      1837      1839      1844
      1838      1837      1840      1845      1838      1837      1840      1846
      1838      1841      1847      1853      1838      1841      1847      1854
      1838      1841      1848      1843      1838      1841      1848      1855
      1839      1837      1838      1841      1839      1837      1838      1842
      1839      1837      1840      1845      1839      1837      1840      1846
      1839      1843      1848      1841      1839      1843      1848      1855
      1839      1844      1851      1845      1839      1844      1851      1856
      1840      1837      1838      1841      1840      1837      1838      1842
      1840      1837      1839      1843      1840      1837      1839      1844
      1840      1845      1851      1844      1840      1845      1851      1856
      1840      1845      1852      1857      1840      1845      1852      1858
      1841      1847      1853      1859      1841      1847      1853      1860
      1841      1848      1843      1849      1841      1848      1855      1859
      1841      1848      1855      1861      1842      1838      1841      1847
      1842      1838      1841      1848      1843      1839      1844      1850
      1843      1839      1844      1851      1843      1848      1841      1847
      1843      1848      1855      1859      1843      1848      1855      1861
      1844      1839      1843      1848      1844      1839      1843      1849
      1844      1851      1845      1852      1844      1851      1856      1862
      1844      1851      1856      1863      1845      1851      1844      1850
      1845      1851      1856      1862      1845      1851      1856      1863
      1845      1852      1857      1863      1845      1852      1857      1864
      1846      1840      1845      1851      1846      1840      1845      1852
      1847      1841      1848      1855      1847      1853      1859      1855
      1847      1853      1859      1865      1848      1841      1847      1853
      1848      1841      1847      1854      1848      1855      1859      1853
      1848      1855      1859      1865      1849      1843      1848      1855
      1850      1844      1851      1856      1851      1845      1852      1857
      1851      1845      1852      1858      1851      1856      1863      1857
      1851      1856      1863      1866      1852      1845      1851      1856
      1852      1857      1863      1856      1852      1857      1863      1866
      1852      1857      1864      1867      1852      1857      1864      1868
      1853      1859      1855      1861      1854      1847      1853      1859
      1854      1847      1853      1860      1855      1859      1853      1860
      1856      1863      1857      1864      1856      1863      1866      1869
      1856      1863      1866      1870      1857      1863      1856      1862
      1857      1863      1866      1869      1857      1863      1866      1870
      1857      1864      1867      1869      1857      1864      1867      1871
      1858      1852      1857      1863      1858      1852      1857      1864
      1860      1853      1859      1865      1861      1855      1859      1865
      1862      1856      1863      1866      1863      1857      1864      1867
      1863      1857      1864      1868      1863      1866      1869      1867
      1863      1866      1869      1872      1864      1857      1863      1866
      1864      1867      1869      1866      1864      1867      1869      1872
      1866      1869      1867      1871      1867      1869      1866      1870
      1868      1864      1867      1869      1868      1864      1867      1871
      1870      1866      1869      1872      1871      1867      1869      1872
      1873      1874      1877      1883      1873      1874      1877      1884
      1873      1875      1879      1884      1873      1875      1879      1885
      1873      1875      1880      1886      1873      1875      1880      1887
      1873      1876      1881      1887      1873      1876      1881      1888
      1874      1873      1875      1879      1874      1873      1875      1880
      1874      1873      1876      1881      1874      1873      1876      1882
      1874      1877      1883      1889      1874      1877      1883      1890
      1874      1877      1884      1879      1874      1877      1884      1891
      1875      1873      1874      1877      1875      1873      1874      1878
      1875      1873      1876      1881      1875      1873      1876      1882
      1875      1879      1884      1877      1875      1879      1884      1891
      1875      1880      1887      1881      1875      1880      1887      1892
      1876      1873      1874      1877      1876      1873      1874      1878
      1876      1873      1875      1879      1876      1873      1875      1880
      1876      1881      1887      1880      1876      1881      1887      1892
      1876      1881      1888      1893      1876      1881      1888      1894
      1877      1883      1889      1895      1877      1883      1889      1896
      1877      1884      1879      1885      1877      1884      1891      1895
      1877      1884      1891      1897      1878      1874      1877      1883
      1878      1874      1877      1884      1879      1875      1880      1886
      1879      1875      1880      1887      1879      1884      1877      1883
      1879      1884      1891      1895      1879      1884      1891      1897
      1880      1875      1879      1884      1880      1875      1879      1885
      1880      1887      1881      1888      1880      1887      1892      1898
      1880      1887      1892      1899      1881      1887      1880      1886
      1881      1887      1892      1898      1881      1887      1892      1899
      1881      1888      1893      1899      1881      1888      1893      1900
      1882      1876      1881      1887      1882      1876      1881      1888
      1883      1877      1884      1891      1883      1889      1895      1891
      1883      1889      1895      1901      1884      1877      1883      1889
      1884      1877      1883      1890      1884      1891      1895      1889
      1884      1891      1895      1901      1885      1879      1884      1891
      1886      1880      1887      1892      1887      1881      1888      1893
      1887      1881      1888      1894      1887      1892      1899      1893
      1887      1892      1899      1902      1888      1881      1887      1892
      1888      1893      1899      1892      1888      1893      1899      1902
      1888      1893      1900      1903      1888      1893      1900      1904
      1889      1895      1891      1897      1890      1883      1889      1895
      1890      1883      1889      1896      1891      1895      1889      1896
      1892      1899      1893      1900      1892      1899      1902      1905
      1892      1899      1902      1906      1893      1899      1892      1898
      1893      1899      1902      1905      1893      1899      1902      1906
      1893      1900      1903      1905      1893      1900      1903      1907
      1894      1888      1893      1899      1894      1888      1893      1900
      1896      1889      1895      1901      1897      1891      1895      1901
      1898      1892      1899      1902      1899      1893      1900      1903
      1899      1893      1900      1904      1899      1902      1905      1903
      1899      1902      1905      1908      1900      1893      1899      1902
      1900      1903      1905      1902      1900      1903      1905      1908
      1902      1905      1903      1907      1903      1905      1902      1906
      1904      1900      1903      1905      1904      1900      1903      1907
      1906      1902      1905      1908      1907      1903      1905      1908
      1909      1910      1913      1919      1909      1910      1913      1920
      1909      1911      1915      1920      1909      1911      1915      1921
      1909      1911      1916      1922      1909      1911      1916      1923
      1909      1912      1917      1923      1909      1912      1917      1924
      1910      1909      1911      1915      1910      1909      1911      1916
      1910      1909      1912      1917      1910      1909      1912      1918
      1910      1913      1919      1925      1910      1913      1919      1926
      1910      1913      1920      1915      1910      1913      1920      1927
      1911      1909      1910      1913      1911      1909      1910      1914
      1911      1909      1912      1917      1911      1909      1912      1918
      1911      1915      1920      1913      1911      1915      1920      1927
      1911      1916      1923      1917      1911      1916      1923      1928
      1912      1909      1910      1913      1912      1909      1910      1914
      1912      1909      1911      1915      1912      1909      1911      1916
      1912      1917      1923      1916      1912      1917      1923      1928
      1912      1917      1924      1929      1912      1917      1924      1930
      1913      1919      1925      1931      1913      1919      1925      1932
      1913      1920      1915      1921      1913      1920      1927      1931
      1913      1920      1927      1933      1914      1910      1913      1919
      1914      1910      1913      1920      1915      1911      1916      1922
      1915      1911      1916      1923      1915      1920      1913      1919
      1915      1920      1927      1931      1915      1920      1927      1933
      1916      1911      1915      1920      1916      1911      1915      1921
      1916      1923      1917      1924      1916      1923      1928      1934
      1916      1923      1928      1935      1917      1923      1916      1922
      1917      1923      1928      1934      1917      1923      1928      1935
      1917      1924      1929      1935      1917      1924      1929      1936
      1918      1912      1917      1923      1918      1912      1917      1924
      1919      1913      1920      1927      1919      1925      1931      1927
      1919      1925      1931      1937      1920      1913      1919      1925
      1920      1913      1919      1926      1920      1927      1931      1925
      1920      1927      1931      1937      1921      1915      1920      1927
      1922      1916      1923      1928      1923      1917      1924      1929
      1923      1917      1924      1930      1923      1928      1935      1929
      1923      1928      1935      1938      1924      1917      1923      1928
      1924      1929      1935      1928      1924      1929      1935      1938
      1924      1929      1936      1939      1924      1929      1936      1940
      1925      1931      1927      1933      1926      1919      1925      1931
      1926      1919      1925      1932      1927      1931      1925      1932
      1928      1935      1929      1936      1928      1935      1938      1941
      1928      1935      1938      1942      1929      1935      1928      1934
      1929      1935      1938      1941      1929      1935      1938      1942
      1929      1936      1939      1941      1929      1936      1939      1943
      1930      1924      1929      1935      1930      1924      1929      1936
      1932      1925      1931      1937      1933      1927      1931      1937
      1934      1928      1935      1938      1935      1929      1936      1939
      1935      1929      1936      1940      1935      1938      1941      1939
      1935      1938      1941      1944      1936      1929      1935      1938
      1936      1939      1941      1938      1936      1939      1941      1944
      1938      1941      1939      1943      1939      1941      1938      1942
      1940      1936      1939      1941      1940      1936      1939      1943
      1942      1938      1941      1944      1943      1939      1941      1944

         0 !NIMPHI: impropers


         0 !NDON: donors


         0 !NACC: acceptors


         0 !NNB

         0         0         0         0         0         0         0         0
         0         0         0         0         0         0         0         0
         0         0         0         0         0         0         0         0
         0         0         0         0         0         0         0         0
         0         0         0         0         0         0         0         0
         0         0         0         0         0         0         0         0
         0         0         0         0         0         0         0         0
         0         0         0         0         0         0         0         0
         0         0         0         0         0         0         0         0
         0         0         0         0         0         0         0         0
         0         0         0         0         0         0         0         0
         0         0         0         0         0         0         0         0
         0         0         0         0         0         0         0         0
         0         0         0         0         0         0         0         0
         0         0         0         0         0         0         0         0
         0         0         0         0         0         0         0         0
         0         0         0         0         0         0         0         0
         0         0         0         0         0         0         0         0
         0         0         0         0         0         0         0         0
         0         0         0         0         0         0         0         0
         0         0         0         0         0         0         0         0
         0         0         0         0         0         0         0         0
         0         0         0         0         0         0         0         0
         0         0         0         0         0         0         0         0
         0         0         0         0         0         0         0         0
         0         0         0         0         0         0         0         0
         0         0         0         0         0         0         0         0
         0         0         0         0         0         0         0         0
         0         0         0         0         0         0         0         0
         0         0         0         0         0         0         0         0
         0         0         0         0         0         0         0         0
         0         0         0         0         0         0         0         0
         0         0         0         0         0         0         0         0
         0         0         0         0         0         0         0         0
         0         0         0         0         0         0         0         0
         0         0         0         0         0         0         0         0
         0         0         0         0         0         0         0         0
         0         0         0         0         0         0         0         0
         0         0         0         0         0         0         0         0
         0         0         0         0         0         0         0         0
         0         0         0         0         0         0         0         0
         0         0         0         0         0         0         0         0
         0         0         0         0         0         0         0         0
         0         0         0         0         0         0         0         0
         0         0         0         0         0         0         0         0
         0         0         0         0         0         0         0         0
         0         0         0         0         0         0         0         0
         0         0         0         0         0         0         0         0
         0         0         0         0         0         0         0         0
         0         0         0         0         0         0         0         0
         0         0         0         0         0         0         0         0
         0         0         0         0         0         0         0         0
         0         0         0         0         0         0         0         0
         0         0         0         0         0         0         0         0
         0         0         0         0         0         0         0         0
         0         0         0         0         0         0         0         0
         0         0         0         0         0         0         0         0
         0         0         0         0         0         0         0         0
         0         0         0         0         0         0         0         0
         0         0         0         0         0         0         0         0
         0         0         0         0         0         0         0         0
         0         0         0         0         0         0         0         0
         0         0         0         0         0         0         0         0
         0         0         0         0         0         0         0         0
         0         0         0         0         0         0         0         0
         0         0         0         0         0         0         0         0
         0         0         0         0         0         0         0         0
         0         0         0         0         0         0         0         0
         0         0         0         0         0         0         0         0
         0         0         0         0         0         0         0         0
         0         0         0         0         0         0         0         0
         0         0         0         0         0         0         0         0
         0         0         0         0         0         0         0         0
         0         0         0         0         0         0         0         0
         0         0         0         0         0         0         0         0
         0         0         0         0         0         0         0         0
         0         0         0         0         0         0         0         0
         0         0         0         0         0         0         0         0
         0         0         0         0         0         0         0         0
         0         0         0         0         0         0         0         0
         0         0         0         0         0         0         0         0
         0         0         0         0         0         0         0         0
         0         0         0         0         0         0         0         0
         0         0         0         0         0         0         0         0
         0         0         0         0         0         0         0         0
         0         0         0         0         0         0         0         0
         0         0         0         0         0         0         0         0
         0         0         0         0         0         0         0         0
         0         0         0         0         0         0         0         0
         0         0         0         0         0         0         0         0
         0         0         0         0         0         0         0         0
         0         0         0         0         0         0         0         0
         0         0         0         0         0         0         0         0
         0         0         0         0         0         0         0         0
         0         0         0         0         0         0         0         0
         0         0         0         0         0         0         0         0
         0         0         0         0         0         0         0         0
         0         0         0         0         0         0         0         0
         0         0         0         0         0         0         0         0
         0         0         0         0         0         0         0         0
         0         0         0         0         0         0         0         0
         0         0         0         0         0         0         0         0
         0         0         0         0         0         0         0         0
         0         0         0         0         0         0         0         0
         0         0         0         0         0         0         0         0
         0         0         0         0         0         0         0         0
         0         0         0         0         0         0         0         0
         0         0         0         0         0         0         0         0
         0         0         0         0         0         0         0         0
         0         0         0         0         0         0         0         0
         0         0         0         0         0         0         0         0
         0         0         0         0         0         0         0         0
         0         0         0         0         0         0         0         0
         0         0         0         0         0         0         0         0
         0         0         0         0         0         0         0         0
         0         0         0         0         0         0         0         0
         0         0         0         0         0         0         0         0
         0         0         0         0         0         0         0         0
         0         0         0         0         0         0         0         0
         0         0         0         0         0         0         0         0
         0         0         0         0         0         0         0         0
         0         0         0         0         0         0         0         0
         0         0         0         0         0         0         0         0
         0         0         0         0         0         0         0         0
         0         0         0         0         0         0         0         0
         0         0         0         0         0         0         0         0
         0         0         0         0         0         0         0         0
         0         0         0         0         0         0         0         0
         0         0         0         0         0         0         0         0
         0         0         0         0         0         0         0         0
         0         0         0         0         0         0         0         0
         0         0         0         0         0         0         0         0
         0         0         0         0         0         0         0         0
         0         0         0         0         0         0         0         0
         0         0         0         0         0         0         0         0
         0         0         0         0         0         0         0         0
         0         0         0         0         0         0         0         0
         0         0         0         0         0         0         0         0
         0         0         0         0         0         0         0         0
         0         0         0         0         0         0         0         0
         0         0         0         0         0         0         0         0
         0         0         0         0         0         0         0         0
         0         0         0         0         0         0         0         0
         0         0         0         0         0         0         0         0
         0         0         0         0         0         0         0         0
         0         0         0         0         0         0         0         0
         0         0         0         0         0         0         0         0
         0         0         0         0         0         0         0         0
         0         0         0         0         0         0         0         0
         0         0         0         0         0         0         0         0
         0         0         0         0         0         0         0         0
         0         0         0         0         0         0         0         0
         0         0         0         0         0         0         0         0
         0         0         0         0         0         0         0         0
         0         0         0         0         0         0         0         0
         0         0         0         0         0         0         0         0
         0         0         0         0         0         0         0         0
         0         0         0         0         0         0         0         0
         0         0         0         0         0         0         0         0
         0         0         0         0         0         0         0         0
         0         0         0         0         0         0         0         0
         0         0         0         0         0         0         0         0
         0         0         0         0         0         0         0         0
         0         0         0         0         0         0         0         0
         0         0         0         0         0         0         0         0
         0         0         0         0         0         0         0         0
         0         0         0         0         0         0         0         0
         0         0         0         0         0         0         0         0
         0         0         0         0         0         0         0         0
         0         0         0         0         0         0         0         0
         0         0         0         0         0         0         0         0
         0         0         0         0         0         0         0         0
         0         0         0         0         0         0         0         0
         0         0         0         0         0         0         0         0
         0         0         0         0         0         0         0         0
         0         0         0         0         0         0         0         0
         0         0         0         0         0         0         0         0
         0         0         0         0         0         0         0         0
         0         0         0         0         0         0         0         0
         0         0         0         0         0         0         0         0
         0         0         0         0         0         0         0         0
         0         0         0         0         0         0         0         0
         0         0         0         0         0         0         0         0
         0         0         0         0         0         0         0         0
         0         0         0         0         0         0         0         0
         0         0         0         0         0         0         0         0
         0         0         0         0         0         0         0         0
         0         0         0         0         0         0         0         0
         0         0         0         0         0         0         0         0
         0         0         0         0         0         0         0         0
         0         0         0         0         0         0         0         0
         0         0         0         0         0         0         0         0
         0         0         0         0         0         0         0         0
         0         0         0         0         0         0         0         0
         0         0         0         0         0         0         0         0
         0         0         0         0         0         0         0         0
         0         0         0         0         0         0         0         0
         0         0         0         0         0         0         0         0
         0         0         0         0         0         0         0         0
         0         0         0         0         0         0         0         0
         0         0         0         0         0         0         0         0
         0         0         0         0         0         0         0         0
         0         0         0         0         0         0         0         0
         0         0         0         0         0         0         0         0
         0         0         0         0         0         0         0         0
         0         0         0         0         0         0         0         0
         0         0         0         0         0         0         0         0
         0         0         0         0         0         0         0         0
         0         0         0         0         0         0         0         0
         0         0         0         0         0         0         0         0
         0         0         0         0         0         0         0         0
         0         0         0         0         0         0         0         0
         0         0         0         0         0         0         0         0
         0         0         0         0         0         0         0         0
         0         0         0         0         0         0         0         0
         0         0         0         0         0         0         0         0
         0         0         0         0         0         0         0         0
         0         0         0         0         0         0         0         0
         0         0         0         0         0         0         0         0
         0         0         0         0         0         0         0         0
         0         0         0         0         0         0         0         0
         0         0         0         0         0         0         0         0
         0         0         0         0         0         0         0         0
         0         0         0         0         0         0         0         0
         0         0         0         0         0         0         0         0
         0         0         0         0         0         0         0         0
         0         0         0         0         0         0         0         0
         0         0         0         0         0         0         0         0
         0         0         0         0         0         0         0         0
         0         0         0         0         0         0         0         0
         0         0         0         0         0         0         0         0
         0         0         0         0         0         0         0         0
         0         0         0         0         0         0         0         0
         0         0         0         0         0         0         0         0
         0         0         0         0         0         0         0         0
         0         0         0         0         0         0         0         0
         0         0         0         0         0         0         0         0
         0         0         0         0         0         0         0         0
         0         0         0         0         0         0         0         0
         0         0         0         0         0         0         0         0
         0         0         0         0         0         0         0         0
         0         0         0         0         0         0         0         0
         0         0         0         0         0         0         0         0

        54         0 !NGRP NST2
         0         1         0        36         1         0        72         1         0
       108         1         0       144         1         0       180         1         0
       216         1         0       252         1         0       288         1         0
       324         1         0       360         1         0       396         1         0
       432         1         0       468         1         0       504         1         0
       540         1         0       576         1         0       612         1         0
       648         1         0       684         1         0       720         1         0
       756         1         0       792         1         0       828         1         0
       864         1         0       900         1         0       936         1         0
       972         1         0      1008         1         0      1044         1         0
      1080         1         0      1116         1         0      1152         1         0
      1188         1         0      1224         1         0      1260         1         0
      1296         1         0      1332         1         0      1368         1         0
      1404         1         0      1440         1         0      1476         1         0
      1512         1         0      1548         1         0      1584         1         0
      1620         1         0      1656         1         0      1692         1         0
      1728         1         0      1764         1         0      1800         1         0
      1836         1         0      1872         1         0      1908         1         0

         0         0 !NUMLP NUMLPH

         0 !NCRTERM: cross-terms

