* Generated by cif2pdb.py
* Supercell with consistent per-molecule atom order
*
      1944  EXT
         1         1  MOL       C1              2.8491321890        7.7056899534        0.9924110718  SYS              1   0.00000
         2         1  MOL       C2              1.8647690182        7.7105988700        2.0115300903  SYS              1   0.00000
         3         1  MOL       C3              4.0932290726        6.9765408817        1.2243485036  SYS              1   0.00000
         4         1  MOL       C4              2.6785471036        8.3857952433       -0.2206919806  SYS              1   0.00000
         5         1  MOL       C5              2.0604035461        7.0513480788        3.2119820101  SYS              1   0.00000
         6         1  MOL       H6              1.0504685919        8.1782598243        1.8667449056  SYS              1   0.00000
         7         1  MOL       C7              4.2636612490        6.2998249177        2.4486970072  SYS              1   0.00000
         8         1  MOL       C8              5.0689901516        6.9713971832        0.2206919806  SYS              1   0.00000
         9         1  MOL       C9              3.6543081826        8.3806515448       -1.2243485036  SYS              1   0.00000
        10         1  MOL       H10             1.8648951624        8.8582687498       -0.3514203512  SYS              1   0.00000
        11         1  MOL       C11             1.0761730738        7.0681954743        4.2493748868  SYS              1   0.00000
        12         1  MOL       C12             3.2910831600        6.3270311509        3.4382967163  SYS              1   0.00000
        13         1  MOL       H13             5.0648556339        5.8123023104        2.6005105990  SYS              1   0.00000
        14         1  MOL       H14             5.8826420928        6.4989236767        0.3514203512  SYS              1   0.00000
        15         1  MOL       C15             4.8984050662        7.6515024731       -0.9924110718  SYS              1   0.00000
        16         1  MOL       C16             3.4838760062        9.0573675088       -2.4486970072  SYS              1   0.00000
        17         1  MOL       C17             1.2873730129        6.4246589463        5.4217131785  SYS              1   0.00000
        18         1  MOL       H18             0.2614722625        7.5370546687        4.1130237906  SYS              1   0.00000
        19         1  MOL       C19             3.4628974097        5.6671787110        4.6921645294  SYS              1   0.00000
        20         1  MOL       C20             5.8827682370        7.6465935565       -2.0115300903  SYS              1   0.00000
        21         1  MOL       C21             4.4564540952        9.0301612756       -3.4382967163  SYS              1   0.00000
        22         1  MOL       H22             2.6826816213        9.5448901161       -2.6005105990  SYS              1   0.00000
        23         1  MOL       C23             2.5052305614        5.7102117005        5.6508392475  SYS              1   0.00000
        24         1  MOL       H24             0.6208692116        6.4478991728        6.0978459342  SYS              1   0.00000
        25         1  MOL       H25             4.2655150335        5.1860043750        4.8580349351  SYS              1   0.00000
        26         1  MOL       H26             6.6970686633        7.1789326022       -1.8667449056  SYS              1   0.00000
        27         1  MOL       C27             5.6871337091        8.3058443477       -3.2119820101  SYS              1   0.00000
        28         1  MOL       C28             4.2846398455        9.6900137155       -4.6921645294  SYS              1   0.00000
        29         1  MOL       H29             2.6436440316        5.2651258102        6.4787855949  SYS              1   0.00000
        30         1  MOL       C30             6.6713641814        8.2889969522       -4.2493748868  SYS              1   0.00000
        31         1  MOL       C31             5.2423066938        9.6469807260       -5.6508392475  SYS              1   0.00000
        32         1  MOL       H32             3.4820222218       10.1711880515       -4.8580349351  SYS              1   0.00000
        33         1  MOL       C33             6.4601642423        8.9325334802       -5.4217131785  SYS              1   0.00000
        34         1  MOL       H34             7.4860649927        7.8201377578       -4.1130237906  SYS              1   0.00000
        35         1  MOL       H35             5.1038932236       10.0920666163       -6.4787855949  SYS              1   0.00000
        36         1  MOL       H36             7.1266680436        8.9092932537       -6.0978459342  SYS              1   0.00000
        37         2  MOL       C1              4.6635478678        3.2497391129       13.0644029766  SYS              2   0.00000
        38         2  MOL       C2              5.6479110386        3.2448301963       12.0452839581  SYS              2   0.00000
        39         2  MOL       C3              3.4194509843        3.9788881846       12.8324655448  SYS              2   0.00000
        40         2  MOL       C4              4.8341329533        2.5696338230       14.2775060290  SYS              2   0.00000
        41         2  MOL       C5              5.4522765107        3.9040809875       10.8448320384  SYS              2   0.00000
        42         2  MOL       H6              6.4622114650        2.7771692420       12.1900691428  SYS              2   0.00000
        43         2  MOL       C7              3.2490188078        4.6556041486       11.6081170412  SYS              2   0.00000
        44         2  MOL       C8              2.4436899052        3.9840318831       13.8361220679  SYS              2   0.00000
        45         2  MOL       C9              3.8583718742        2.5747775215       15.2811625521  SYS              2   0.00000
        46         2  MOL       H10             5.6477848944        2.0971603165       14.4082343997  SYS              2   0.00000
        47         2  MOL       C11             6.4365069830        3.8872335920        9.8074391616  SYS              2   0.00000
        48         2  MOL       C12             4.2215968968        4.6283979154       10.6185173322  SYS              2   0.00000
        49         2  MOL       H13             2.4478244229        5.1431267559       11.4563034495  SYS              2   0.00000
        50         2  MOL       H14             1.6300379640        4.4565053895       13.7053936972  SYS              2   0.00000
        51         2  MOL       C15             2.6142749906        3.3039265932       15.0492251203  SYS              2   0.00000
        52         2  MOL       C16             4.0288040507        1.8980615575       16.5055110557  SYS              2   0.00000
        53         2  MOL       C17             6.2253070440        4.5307701199        8.6351008700  SYS              2   0.00000
        54         2  MOL       H18             7.2512077944        3.4183743976        9.9437902579  SYS              2   0.00000
        55         2  MOL       C19             4.0497826472        5.2882503553        9.3646495191  SYS              2   0.00000
        56         2  MOL       C20             1.6299118198        3.3088355098       16.0683441388  SYS              2   0.00000
        57         2  MOL       C21             3.0562259616        1.9252677907       17.4951107647  SYS              2   0.00000
        58         2  MOL       H22             4.8299984356        1.4105389502       16.6573246474  SYS              2   0.00000
        59         2  MOL       C23             5.0074494954        5.2452173658        8.4059748010  SYS              2   0.00000
        60         2  MOL       H24             6.8918108452        4.5075298934        7.9589681142  SYS              2   0.00000
        61         2  MOL       H25             3.2471650234        5.7694246913        9.1987791133  SYS              2   0.00000
        62         2  MOL       H26             0.8156113935        3.7764964641       15.9235589541  SYS              2   0.00000
        63         2  MOL       C27             1.8255463477        2.6495847185       17.2687960585  SYS              2   0.00000
        64         2  MOL       C28             3.2280402113        1.2654153507       18.7489785778  SYS              2   0.00000
        65         2  MOL       H29             4.8690360252        5.6903032560        7.5780284535  SYS              2   0.00000
        66         2  MOL       C30             0.8413158754        2.6664321140       18.3061889353  SYS              2   0.00000
        67         2  MOL       C31             2.2703733630        1.3084483403       19.7076532959  SYS              2   0.00000
        68         2  MOL       H32             4.0306578351        0.7842410148       18.9148489836  SYS              2   0.00000
        69         2  MOL       C33             1.0525158145        2.0228955861       19.4785272269  SYS              2   0.00000
        70         2  MOL       H34             0.0266150641        3.1352913085       18.1698378390  SYS              2   0.00000
        71         2  MOL       H35             2.4087868333        0.8633624500       20.5355996434  SYS              2   0.00000
        72         2  MOL       H36             0.3860120133        2.0461358126       20.1546599827  SYS              2   0.00000
        73         3  MOL       C1              3.1155364199        6.5807594462       29.1060391687  SYS              3   0.00000
        74         3  MOL       C2              2.1311732491        6.5856683628       30.1251581872  SYS              3   0.00000
        75         3  MOL       C3              4.3596333034        5.8516103745       29.3379766005  SYS              3   0.00000
        76         3  MOL       C4              2.9449513344        7.2608647361       27.8929361164  SYS              3   0.00000
        77         3  MOL       C5              2.3268077770        5.9264175716       31.3256101070  SYS              3   0.00000
        78         3  MOL       H6              1.3168728227        7.0533293171       29.9803730025  SYS              3   0.00000
        79         3  MOL       C7              4.5300654799        5.1748944105       30.5623251042  SYS              3   0.00000
        80         3  MOL       C8              5.3353943825        5.8464666760       28.3343200775  SYS              3   0.00000
        81         3  MOL       C9              3.9207124135        7.2557210376       26.8892795933  SYS              3   0.00000
        82         3  MOL       H10             2.1312993933        7.7333382426       27.7622077457  SYS              3   0.00000
        83         3  MOL       C11             1.3425773047        5.9432649671       32.3630029838  SYS              3   0.00000
        84         3  MOL       C12             3.5574873909        5.2021006437       31.5519248132  SYS              3   0.00000
        85         3  MOL       H13             5.3312598648        4.6873718032       30.7141386959  SYS              3   0.00000
        86         3  MOL       H14             6.1490463237        5.3739931695       28.4650484481  SYS              3   0.00000
        87         3  MOL       C15             5.1648092971        6.5265719659       27.1212170251  SYS              3   0.00000
        88         3  MOL       C16             3.7502802370        7.9324370016       25.6649310897  SYS              3   0.00000
        89         3  MOL       C17             1.5537772437        5.2997284391       33.5353412754  SYS              3   0.00000
        90         3  MOL       H18             0.5278764933        6.4121241615       32.2266518875  SYS              3   0.00000
        91         3  MOL       C19             3.7293016405        4.5422482038       32.8057926263  SYS              3   0.00000
        92         3  MOL       C20             6.1491724679        6.5216630493       26.1020980066  SYS              3   0.00000
        93         3  MOL       C21             4.7228583261        7.9052307684       24.6753313807  SYS              3   0.00000
        94         3  MOL       H22             2.9490858521        8.4199596089       25.5131174979  SYS              3   0.00000
        95         3  MOL       C23             2.7716347923        4.5852811933       33.7644673444  SYS              3   0.00000
        96         3  MOL       H24             0.8872734425        5.3229686656       34.2114740311  SYS              3   0.00000
        97         3  MOL       H25             4.5319192643        4.0610738678       32.9716630321  SYS              3   0.00000
        98         3  MOL       H26             6.9634728942        6.0540020950       26.2468831913  SYS              3   0.00000
        99         3  MOL       C27             5.9535379400        7.1809138406       24.9016460868  SYS              3   0.00000
       100         3  MOL       C28             4.5510440764        8.5650832084       23.4214635675  SYS              3   0.00000
       101         3  MOL       H29             2.9100482625        4.1401953031       34.5924136918  SYS              3   0.00000
       102         3  MOL       C30             6.9377684123        7.1640664451       23.8642532101  SYS              3   0.00000
       103         3  MOL       C31             5.5087109247        8.5220502188       22.4627888494  SYS              3   0.00000
       104         3  MOL       H32             3.7484264526        9.0462575443       23.2555931618  SYS              3   0.00000
       105         3  MOL       C33             6.7265684732        7.8076029730       22.6919149184  SYS              3   0.00000
       106         3  MOL       H34             7.7524692236        6.6952072506       24.0006043063  SYS              3   0.00000
       107         3  MOL       H35             5.3702974544        8.9671361091       21.6348425020  SYS              3   0.00000
       108         3  MOL       H36             7.3930722744        7.7843627465       22.0157821627  SYS              3   0.00000
       109         4  MOL       C1              6.1357851230       18.6069315394       13.0644029766  SYS              4   0.00000
       110         4  MOL       C2              7.1201482938       18.6020226228       12.0452839581  SYS              4   0.00000
       111         4  MOL       C3              4.8916882395       19.3360806110       12.8324655448  SYS              4   0.00000
       112         4  MOL       C4              6.3063702085       17.9268262494       14.2775060290  SYS              4   0.00000
       113         4  MOL       C5              6.9245137659       19.2612734140       10.8448320384  SYS              4   0.00000
       114         4  MOL       H6              7.9344487202       18.1343616685       12.1900691428  SYS              4   0.00000
       115         4  MOL       C7              4.7212560630       20.0127965751       11.6081170412  SYS              4   0.00000
       116         4  MOL       C8              3.9159271604       19.3412243096       13.8361220679  SYS              4   0.00000
       117         4  MOL       C9              5.3306091294       17.9319699480       15.2811625521  SYS              4   0.00000
       118         4  MOL       H10             7.1200221497       17.4543527430       14.4082343997  SYS              4   0.00000
       119         4  MOL       C11             7.9087442382       19.2444260185        9.8074391616  SYS              4   0.00000
       120         4  MOL       C12             5.6938341520       19.9855903419       10.6185173322  SYS              4   0.00000
       121         4  MOL       H13             3.9200616781       20.5003191824       11.4563034495  SYS              4   0.00000
       122         4  MOL       H14             3.1022752192       19.8136978160       13.7053936972  SYS              4   0.00000
       123         4  MOL       C15             4.0865122458       18.6611190197       15.0492251203  SYS              4   0.00000
       124         4  MOL       C16             5.5010413059       17.2552539840       16.5055110557  SYS              4   0.00000
       125         4  MOL       C17             7.6975442992       19.8879625464        8.6351008700  SYS              4   0.00000
       126         4  MOL       H18             8.7234450496       18.7755668241        9.9437902579  SYS              4   0.00000
       127         4  MOL       C19             5.5220199024       20.6454427818        9.3646495191  SYS              4   0.00000
       128         4  MOL       C20             3.1021490751       18.6660279363       16.0683441388  SYS              4   0.00000
       129         4  MOL       C21             4.5284632169       17.2824602172       17.4951107647  SYS              4   0.00000
       130         4  MOL       H22             6.3022356908       16.7677313767       16.6573246474  SYS              4   0.00000
       131         4  MOL       C23             6.4796867506       20.6024097923        8.4059748010  SYS              4   0.00000
       132         4  MOL       H24             8.3640481004       19.8647223199        7.9589681142  SYS              4   0.00000
       133         4  MOL       H25             4.7194022786       21.1266171178        9.1987791133  SYS              4   0.00000
       134         4  MOL       H26             2.2878486487       19.1336888906       15.9235589541  SYS              4   0.00000
       135         4  MOL       C27             3.2977836030       18.0067771450       17.2687960585  SYS              4   0.00000
       136         4  MOL       C28             4.7002774665       16.6226077772       18.7489785778  SYS              4   0.00000
       137         4  MOL       H29             6.3412732804       21.0474956825        7.5780284535  SYS              4   0.00000
       138         4  MOL       C30             2.3135531306       18.0236245405       18.3061889353  SYS              4   0.00000
       139         4  MOL       C31             3.7426106182       16.6656407668       19.7076532959  SYS              4   0.00000
       140         4  MOL       H32             5.5028950903       16.1414334413       18.9148489836  SYS              4   0.00000
       141         4  MOL       C33             2.5247530697       17.3800880126       19.4785272269  SYS              4   0.00000
       142         4  MOL       H34             1.4988523193       18.4924837350       18.1698378390  SYS              4   0.00000
       143         4  MOL       H35             3.8810240885       16.2205548765       20.5355996434  SYS              4   0.00000
       144         4  MOL       H36             1.8582492685       17.4033282391       20.1546599827  SYS              4   0.00000
       145         5  MOL       C1              4.5877736751       21.9379518727       29.1060391687  SYS              5   0.00000
       146         5  MOL       C2              3.6034105043       21.9428607893       30.1251581872  SYS              5   0.00000
       147         5  MOL       C3              5.8318705586       21.2088028010       29.3379766005  SYS              5   0.00000
       148         5  MOL       C4              4.4171885896       22.6180571626       27.8929361164  SYS              5   0.00000
       149         5  MOL       C5              3.7990450322       21.2836099981       31.3256101070  SYS              5   0.00000
       150         5  MOL       H6              2.7891100779       22.4105217436       29.9803730025  SYS              5   0.00000
       151         5  MOL       C7              6.0023027351       20.5320868370       30.5623251042  SYS              5   0.00000
       152         5  MOL       C8              6.8076316377       21.2036591025       28.3343200775  SYS              5   0.00000
       153         5  MOL       C9              5.3929496687       22.6129134641       26.8892795933  SYS              5   0.00000
       154         5  MOL       H10             3.6035366485       23.0905306691       27.7622077457  SYS              5   0.00000
       155         5  MOL       C11             2.8148145599       21.3004573936       32.3630029838  SYS              5   0.00000
       156         5  MOL       C12             5.0297246461       20.5592930702       31.5519248132  SYS              5   0.00000
       157         5  MOL       H13             6.8034971200       20.0445642297       30.7141386959  SYS              5   0.00000
       158         5  MOL       H14             7.6212835789       20.7311855960       28.4650484481  SYS              5   0.00000
       159         5  MOL       C15             6.6370465523       21.8837643924       27.1212170251  SYS              5   0.00000
       160         5  MOL       C16             5.2225174922       23.2896294281       25.6649310897  SYS              5   0.00000
       161         5  MOL       C17             3.0260144989       20.6569208656       33.5353412754  SYS              5   0.00000
       162         5  MOL       H18             2.0001137485       21.7693165880       32.2266518875  SYS              5   0.00000
       163         5  MOL       C19             5.2015388957       19.8994406303       32.8057926263  SYS              5   0.00000
       164         5  MOL       C20             7.6214097231       21.8788554758       26.1020980066  SYS              5   0.00000
       165         5  MOL       C21             6.1950955813       23.2624231949       24.6753313807  SYS              5   0.00000
       166         5  MOL       H22             4.4213231074       23.7771520354       25.5131174979  SYS              5   0.00000
       167         5  MOL       C23             4.2438720475       19.9424736198       33.7644673444  SYS              5   0.00000
       168         5  MOL       H24             2.3595106977       20.6801610921       34.2114740311  SYS              5   0.00000
       169         5  MOL       H25             6.0041565195       19.4182662943       32.9716630321  SYS              5   0.00000
       170         5  MOL       H26             8.4357101494       21.4111945215       26.2468831913  SYS              5   0.00000
       171         5  MOL       C27             7.4257751952       22.5381062671       24.9016460868  SYS              5   0.00000
       172         5  MOL       C28             6.0232813316       23.9222756348       23.4214635675  SYS              5   0.00000
       173         5  MOL       H29             4.3822855177       19.4973877295       34.5924136918  SYS              5   0.00000
       174         5  MOL       C30             8.4100056675       22.5212588715       23.8642532101  SYS              5   0.00000
       175         5  MOL       C31             6.9809481799       23.8792426453       22.4627888494  SYS              5   0.00000
       176         5  MOL       H32             5.2206637078       24.4034499708       23.2555931618  SYS              5   0.00000
       177         5  MOL       C33             8.1988057284       23.1647953995       22.6919149184  SYS              5   0.00000
       178         5  MOL       H34             9.2247064788       22.0523996771       24.0006043063  SYS              5   0.00000
       179         5  MOL       H35             6.8425347096       24.3243285356       21.6348425020  SYS              5   0.00000
       180         5  MOL       H36             8.8653095296       23.1415551730       22.0157821627  SYS              5   0.00000
       181         6  MOL       C1              5.3996664954       10.9283353261       13.0644029766  SYS              6   0.00000
       182         6  MOL       C2              6.3840296662       10.9234264095       12.0452839581  SYS              6   0.00000
       183         6  MOL       C3              4.1555696119       11.6574843978       12.8324655448  SYS              6   0.00000
       184         6  MOL       C4              5.5702515809       10.2482300362       14.2775060290  SYS              6   0.00000
       185         6  MOL       C5              6.1883951383       11.5826772008       10.8448320384  SYS              6   0.00000
       186         6  MOL       H6              7.1983300926       10.4557654552       12.1900691428  SYS              6   0.00000
       187         6  MOL       C7              3.9851374354       12.3342003618       11.6081170412  SYS              6   0.00000
       188         6  MOL       C8              3.1798085328       11.6626280964       13.8361220679  SYS              6   0.00000
       189         6  MOL       C9              4.5944905018       10.2533737348       15.2811625521  SYS              6   0.00000
       190         6  MOL       H10             6.3839035221        9.7757565298       14.4082343997  SYS              6   0.00000
       191         6  MOL       C11             7.1726256106       11.5658298053        9.8074391616  SYS              6   0.00000
       192         6  MOL       C12             4.9577155244       12.3069941286       10.6185173322  SYS              6   0.00000
       193         6  MOL       H13             3.1839430505       12.8217229691       11.4563034495  SYS              6   0.00000
       194         6  MOL       H14             2.3661565916       12.1351016028       13.7053936972  SYS              6   0.00000
       195         6  MOL       C15             3.3503936182       10.9825228064       15.0492251203  SYS              6   0.00000
       196         6  MOL       C16             4.7649226783        9.5766577707       16.5055110557  SYS              6   0.00000
       197         6  MOL       C17             6.9614256716       12.2093663332        8.6351008700  SYS              6   0.00000
       198         6  MOL       H18             7.9873264220       11.0969706108        9.9437902579  SYS              6   0.00000
       199         6  MOL       C19             4.7859012748       12.9668465686        9.3646495191  SYS              6   0.00000
       200         6  MOL       C20             2.3660304474       10.9874317230       16.0683441388  SYS              6   0.00000
       201         6  MOL       C21             3.7923445892        9.6038640039       17.4951107647  SYS              6   0.00000
       202         6  MOL       H22             5.5661170632        9.0891351634       16.6573246474  SYS              6   0.00000
       203         6  MOL       C23             5.7435681230       12.9238135790        8.4059748010  SYS              6   0.00000
       204         6  MOL       H24             7.6279294728       12.1861261067        7.9589681142  SYS              6   0.00000
       205         6  MOL       H25             3.9832836510       13.4480209045        9.1987791133  SYS              6   0.00000
       206         6  MOL       H26             1.5517300211       11.4550926774       15.9235589541  SYS              6   0.00000
       207         6  MOL       C27             2.5616649753       10.3281809318       17.2687960585  SYS              6   0.00000
       208         6  MOL       C28             3.9641588389        8.9440115640       18.7489785778  SYS              6   0.00000
       209         6  MOL       H29             5.6051546528       13.3688994693        7.5780284535  SYS              6   0.00000
       210         6  MOL       C30             1.5774345030       10.3450283273       18.3061889353  SYS              6   0.00000
       211         6  MOL       C31             3.0064919906        8.9870445535       19.7076532959  SYS              6   0.00000
       212         6  MOL       H32             4.7667764627        8.4628372280       18.9148489836  SYS              6   0.00000
       213         6  MOL       C33             1.7886344421        9.7014917994       19.4785272269  SYS              6   0.00000
       214         6  MOL       H34             0.7627336917       10.8138875217       18.1698378390  SYS              6   0.00000
       215         6  MOL       H35             3.1449054609        8.5419586633       20.5355996434  SYS              6   0.00000
       216         6  MOL       H36             1.1221306409        9.7247320259       20.1546599827  SYS              6   0.00000
       217         7  MOL       C1              3.8516550475       14.2593556595       29.1060391687  SYS              7   0.00000
       218         7  MOL       C2              2.8672918767       14.2642645760       30.1251581872  SYS              7   0.00000
       219         7  MOL       C3              5.0957519310       13.5302065878       29.3379766005  SYS              7   0.00000
       220         7  MOL       C4              3.6810699620       14.9394609494       27.8929361164  SYS              7   0.00000
       221         7  MOL       C5              3.0629264046       13.6050137848       31.3256101070  SYS              7   0.00000
       222         7  MOL       H6              2.0529914503       14.7319255304       29.9803730025  SYS              7   0.00000
       223         7  MOL       C7              5.2661841075       12.8534906238       30.5623251042  SYS              7   0.00000
       224         7  MOL       C8              6.0715130101       13.5250628892       28.3343200775  SYS              7   0.00000
       225         7  MOL       C9              4.6568310411       14.9343172508       26.8892795933  SYS              7   0.00000
       226         7  MOL       H10             2.8674180209       15.4119344558       27.7622077457  SYS              7   0.00000
       227         7  MOL       C11             2.0786959323       13.6218611803       32.3630029838  SYS              7   0.00000
       228         7  MOL       C12             4.2936060185       12.8806968570       31.5519248132  SYS              7   0.00000
       229         7  MOL       H13             6.0673784924       12.3659680165       30.7141386959  SYS              7   0.00000
       230         7  MOL       H14             6.8851649513       13.0525893828       28.4650484481  SYS              7   0.00000
       231         7  MOL       C15             5.9009279247       14.2051681792       27.1212170251  SYS              7   0.00000
       232         7  MOL       C16             4.4863988646       15.6110332149       25.6649310897  SYS              7   0.00000
       233         7  MOL       C17             2.2898958713       12.9783246524       33.5353412754  SYS              7   0.00000
       234         7  MOL       H18             1.2639951209       14.0907203747       32.2266518875  SYS              7   0.00000
       235         7  MOL       C19             4.4654202681       12.2208444170       32.8057926263  SYS              7   0.00000
       236         7  MOL       C20             6.8852910955       14.2002592626       26.1020980066  SYS              7   0.00000
       237         7  MOL       C21             5.4589769537       15.5838269816       24.6753313807  SYS              7   0.00000
       238         7  MOL       H22             3.6852044797       16.0985558222       25.5131174979  SYS              7   0.00000
       239         7  MOL       C23             3.5077534199       12.2638774066       33.7644673444  SYS              7   0.00000
       240         7  MOL       H24             1.6233920701       13.0015648789       34.2114740311  SYS              7   0.00000
       241         7  MOL       H25             5.2680378919       11.7396700810       32.9716630321  SYS              7   0.00000
       242         7  MOL       H26             7.6995915218       13.7325983082       26.2468831913  SYS              7   0.00000
       243         7  MOL       C27             6.6896565676       14.8595100538       24.9016460868  SYS              7   0.00000
       244         7  MOL       C28             5.2871627040       16.2436794216       23.4214635675  SYS              7   0.00000
       245         7  MOL       H29             3.6461668901       11.8187915163       34.5924136918  SYS              7   0.00000
       246         7  MOL       C30             7.6738870399       14.8426626583       23.8642532101  SYS              7   0.00000
       247         7  MOL       C31             6.2448295523       16.2006464320       22.4627888494  SYS              7   0.00000
       248         7  MOL       H32             4.4845450802       16.7248537576       23.2555931618  SYS              7   0.00000
       249         7  MOL       C33             7.4626871008       15.4861991862       22.6919149184  SYS              7   0.00000
       250         7  MOL       H34             8.4885878512       14.3738034639       24.0006043063  SYS              7   0.00000
       251         7  MOL       H35             6.1064160820       16.6457323223       21.6348425020  SYS              7   0.00000
       252         7  MOL       H36             8.1291909020       15.4629589597       22.0157821627  SYS              7   0.00000
       253         8  MOL       C1              2.1130135614        0.0270937402        0.9924110718  SYS              8   0.00000
       254         8  MOL       C2              1.1286503906        0.0320026567        2.0115300903  SYS              8   0.00000
       255         8  MOL       C3              3.3571104450       -0.7020553315        1.2243485036  SYS              8   0.00000
       256         8  MOL       C4              1.9424284760        0.7071990301       -0.2206919806  SYS              8   0.00000
       257         8  MOL       C5              1.3242849185       -0.6272481345        3.2119820101  SYS              8   0.00000
       258         8  MOL       H6              0.3143499643        0.4996636111        1.8667449056  SYS              8   0.00000
       259         8  MOL       C7              3.5275426214       -1.3787712955        2.4486970072  SYS              8   0.00000
       260         8  MOL       C8              4.3328715240       -0.7071990301        0.2206919806  SYS              8   0.00000
       261         8  MOL       C9              2.9181895550        0.7020553315       -1.2243485036  SYS              8   0.00000
       262         8  MOL       H10             1.1287765348        1.1796725365       -0.3514203512  SYS              8   0.00000
       263         8  MOL       C11             0.3400544462       -0.6104007390        4.2493748868  SYS              8   0.00000
       264         8  MOL       C12             2.5549645324       -1.3515650623        3.4382967163  SYS              8   0.00000
       265         8  MOL       H13             4.3287370063       -1.8662939029        2.6005105990  SYS              8   0.00000
       266         8  MOL       H14             5.1465234652       -1.1796725365        0.3514203512  SYS              8   0.00000
       267         8  MOL       C15             4.1622864386       -0.0270937402       -0.9924110718  SYS              8   0.00000
       268         8  MOL       C16             2.7477573786        1.3787712955       -2.4486970072  SYS              8   0.00000
       269         8  MOL       C17             0.5512543853       -1.2539372669        5.4217131785  SYS              8   0.00000
       270         8  MOL       H18            -0.4746463651       -0.1415415446        4.1130237906  SYS              8   0.00000
       271         8  MOL       C19             2.7267787821       -2.0114175023        4.6921645294  SYS              8   0.00000
       272         8  MOL       C20             5.1466496094       -0.0320026567       -2.0115300903  SYS              8   0.00000
       273         8  MOL       C21             3.7203354676        1.3515650623       -3.4382967163  SYS              8   0.00000
       274         8  MOL       H22             1.9465629937        1.8662939029       -2.6005105990  SYS              8   0.00000
       275         8  MOL       C23             1.7691119338       -1.9683845127        5.6508392475  SYS              8   0.00000
       276         8  MOL       H24            -0.1152494160       -1.2306970404        6.0978459342  SYS              8   0.00000
       277         8  MOL       H25             3.5293964059       -2.4925918383        4.8580349351  SYS              8   0.00000
       278         8  MOL       H26             5.9609500357       -0.4996636111       -1.8667449056  SYS              8   0.00000
       279         8  MOL       C27             4.9510150815        0.6272481345       -3.2119820101  SYS              8   0.00000
       280         8  MOL       C28             3.5485212179        2.0114175023       -4.6921645294  SYS              8   0.00000
       281         8  MOL       H29             1.9075254040       -2.4134704030        6.4787855949  SYS              8   0.00000
       282         8  MOL       C30             5.9352455538        0.6104007390       -4.2493748868  SYS              8   0.00000
       283         8  MOL       C31             4.5061880662        1.9683845127       -5.6508392475  SYS              8   0.00000
       284         8  MOL       H32             2.7459035941        2.4925918383       -4.8580349351  SYS              8   0.00000
       285         8  MOL       C33             5.7240456147        1.2539372669       -5.4217131785  SYS              8   0.00000
       286         8  MOL       H34             6.7499463651        0.1415415446       -4.1130237906  SYS              8   0.00000
       287         8  MOL       H35             4.3677745960        2.4134704030       -6.4787855949  SYS              8   0.00000
       288         8  MOL       H36             6.3905494160        1.2306970404       -6.0978459342  SYS              8   0.00000
       289         9  MOL       C1              3.5852508166       15.3842861666        0.9924110718  SYS              9   0.00000
       290         9  MOL       C2              2.6008876458       15.3891950832        2.0115300903  SYS              9   0.00000
       291         9  MOL       C3              4.8293477002       14.6551370950        1.2243485036  SYS              9   0.00000
       292         9  MOL       C4              3.4146657312       16.0643914566       -0.2206919806  SYS              9   0.00000
       293         9  MOL       C5              2.7965221737       14.7299442920        3.2119820101  SYS              9   0.00000
       294         9  MOL       H6              1.7865872195       15.8568560376        1.8667449056  SYS              9   0.00000
       295         9  MOL       C7              4.9997798766       13.9784211309        2.4486970072  SYS              9   0.00000
       296         9  MOL       C8              5.8051087792       14.6499933964        0.2206919806  SYS              9   0.00000
       297         9  MOL       C9              4.3904268102       16.0592477580       -1.2243485036  SYS              9   0.00000
       298         9  MOL       H10             2.6010137900       16.5368649630       -0.3514203512  SYS              9   0.00000
       299         9  MOL       C11             1.8122917014       14.7467916875        4.2493748868  SYS              9   0.00000
       300         9  MOL       C12             4.0272017876       14.0056273642        3.4382967163  SYS              9   0.00000
       301         9  MOL       H13             5.8009742615       13.4908985236        2.6005105990  SYS              9   0.00000
       302         9  MOL       H14             6.6187607204       14.1775198900        0.3514203512  SYS              9   0.00000
       303         9  MOL       C15             5.6345236938       15.3300986863       -0.9924110718  SYS              9   0.00000
       304         9  MOL       C16             4.2199946338       16.7359637220       -2.4486970072  SYS              9   0.00000
       305         9  MOL       C17             2.0234916405       14.1032551596        5.4217131785  SYS              9   0.00000
       306         9  MOL       H18             0.9975908901       15.2156508819        4.1130237906  SYS              9   0.00000
       307         9  MOL       C19             4.1990160373       13.3457749242        4.6921645294  SYS              9   0.00000
       308         9  MOL       C20             6.6188868646       15.3251897698       -2.0115300903  SYS              9   0.00000
       309         9  MOL       C21             5.1925727228       16.7087574888       -3.4382967163  SYS              9   0.00000
       310         9  MOL       H22             3.4188002489       17.2234863293       -2.6005105990  SYS              9   0.00000
       311         9  MOL       C23             3.2413491890       13.3888079138        5.6508392475  SYS              9   0.00000
       312         9  MOL       H24             1.3569878392       14.1264953861        6.0978459342  SYS              9   0.00000
       313         9  MOL       H25             5.0016336611       12.8646005882        4.8580349351  SYS              9   0.00000
       314         9  MOL       H26             7.4331872909       14.8575288154       -1.8667449056  SYS              9   0.00000
       315         9  MOL       C27             6.4232523367       15.9844405610       -3.2119820101  SYS              9   0.00000
       316         9  MOL       C28             5.0207584731       17.3686099288       -4.6921645294  SYS              9   0.00000
       317         9  MOL       H29             3.3797626592       12.9437220235        6.4787855949  SYS              9   0.00000
       318         9  MOL       C30             7.4074828090       15.9675931655       -4.2493748868  SYS              9   0.00000
       319         9  MOL       C31             5.9784253214       17.3255769392       -5.6508392475  SYS              9   0.00000
       320         9  MOL       H32             4.2181408494       17.8497842648       -4.8580349351  SYS              9   0.00000
       321         9  MOL       C33             7.1962828699       16.6111296934       -5.4217131785  SYS              9   0.00000
       322         9  MOL       H34             8.2221836203       15.4987339711       -4.1130237906  SYS              9   0.00000
       323         9  MOL       H35             5.8400118512       17.7706628295       -6.4787855949  SYS              9   0.00000
       324         9  MOL       H36             7.8627866712       16.5878894669       -6.0978459342  SYS              9   0.00000
       325        10  MOL       C1             10.1344139593       26.3237827778       27.3067669705  SYS             10   0.00000
       326        10  MOL       C2             11.1263281399       26.8953503153       26.4746035789  SYS             10   0.00000
       327        10  MOL       C3              8.9035959359       25.8358064162       26.7023239664  SYS             10   0.00000
       328        10  MOL       C4             10.3137956504       26.2218119501       28.6941745171  SYS             10   0.00000
       329        10  MOL       C5             10.9476570547       26.9964309944       25.0998471649  SYS             10   0.00000
       330        10  MOL       H6             11.9316484203       27.2164764718       26.8639773280  SYS             10   0.00000
       331        10  MOL       C7              8.7471665711       25.9552228249       25.3106993756  SYS             10   0.00000
       332        10  MOL       C8              7.9224432046       25.2785005282       27.5330816767  SYS             10   0.00000
       333        10  MOL       C9              9.3326429191       25.6645060621       29.5249322274  SYS             10   0.00000
       334        10  MOL       H10            11.1272998371       26.5390059072       29.0666800894  SYS             10   0.00000
       335        10  MOL       C11            11.9436672423       27.5822895691       24.2367587823  SYS             10   0.00000
       336        10  MOL       C12             9.7230903420       26.5205154007       24.5010268865  SYS             10   0.00000
       337        10  MOL       H13             7.9457993564       25.6376180792       24.9100801753  SYS             10   0.00000
       338        10  MOL       H14             7.1089390179       24.9613065712       27.1605761044  SYS             10   0.00000
       339        10  MOL       C15             8.1018248957       25.1765297006       28.9204892233  SYS             10   0.00000
       340        10  MOL       C16             9.4890722839       25.5450896534       30.9165568182  SYS             10   0.00000
       341        10  MOL       C17            11.7456948575       27.6794917666       22.9013614477  SYS             10   0.00000
       342        10  MOL       H18            12.7534678662       27.9062817696       24.6120757174  SYS             10   0.00000
       343        10  MOL       C19             9.5592792437       26.6457763907       23.0784773048  SYS             10   0.00000
       344        10  MOL       C20             7.1099107151       24.6049621630       29.7526526150  SYS             10   0.00000
       345        10  MOL       C21             8.5131485130       24.9797970776       31.7262293074  SYS             10   0.00000
       346        10  MOL       H22            10.2904394986       25.8626943992       31.3171760186  SYS             10   0.00000
       347        10  MOL       C23            10.5382432920       27.1968708307       22.3165979833  SYS             10   0.00000
       348        10  MOL       H24            12.4141287767       28.0712085657       22.3517400184  SYS             10   0.00000
       349        10  MOL       H25             8.7594635634       26.3393716519       22.6666126531  SYS             10   0.00000
       350        10  MOL       H26             6.3045904347       24.2838360066       29.3632788658  SYS             10   0.00000
       351        10  MOL       C27             7.2885818002       24.5038814839       31.1274090289  SYS             10   0.00000
       352        10  MOL       C28             8.6769596113       24.8545360877       33.1487788891  SYS             10   0.00000
       353        10  MOL       H29            10.4171073016       27.2617587727       21.3761971235  SYS             10   0.00000
       354        10  MOL       C30             6.2925716126       23.9180229093       31.9904974115  SYS             10   0.00000
       355        10  MOL       C31             7.6979955630       24.3034416477       33.9106582105  SYS             10   0.00000
       356        10  MOL       H32             9.4767752916       25.1609408265       33.5606435407  SYS             10   0.00000
       357        10  MOL       C33             6.4905439974       23.8208207118       33.3258947461  SYS             10   0.00000
       358        10  MOL       H34             5.4827709888       23.5940307087       31.6151804764  SYS             10   0.00000
       359        10  MOL       H35             7.8191315534       24.2385537056       34.8510590703  SYS             10   0.00000
       360        10  MOL       H36             5.8221100782       23.4291039127       33.8755161754  SYS             10   0.00000
       361        11  MOL       C1              5.6270647820        3.2656715680        0.8068611264  SYS             11   0.00000
       362        11  MOL       C2              4.6351506014        2.6941040305        1.6390245180  SYS             11   0.00000
       363        11  MOL       C3              6.8578828054        3.7536479296        1.4113041305  SYS             11   0.00000
       364        11  MOL       C4              5.4476830909        3.3676423957       -0.5805464202  SYS             11   0.00000
       365        11  MOL       C5              4.8138216865        2.5930233514        3.0137809320  SYS             11   0.00000
       366        11  MOL       H6              3.8298303210        2.3729778740        1.2496507689  SYS             11   0.00000
       367        11  MOL       C7              7.0143121702        3.6342315209        2.8029287213  SYS             11   0.00000
       368        11  MOL       C8              7.8390355367        4.3109538176        0.5805464202  SYS             11   0.00000
       369        11  MOL       C9              6.4288358222        3.9249482837       -1.4113041305  SYS             11   0.00000
       370        11  MOL       H10             4.6341789042        3.0504484387       -0.9530519925  SYS             11   0.00000
       371        11  MOL       C11             3.8178114990        2.0071647767        3.8768693146  SYS             11   0.00000
       372        11  MOL       C12             6.0383883993        3.0689389451        3.6126012105  SYS             11   0.00000
       373        11  MOL       H13             7.8156793849        3.9518362666        3.2035479216  SYS             11   0.00000
       374        11  MOL       H14             8.6525397234        4.6281477746        0.9530519925  SYS             11   0.00000
       375        11  MOL       C15             7.6596538456        4.4129246452       -0.8068611264  SYS             11   0.00000
       376        11  MOL       C16             6.2724064574        4.0443646924       -2.8029287213  SYS             11   0.00000
       377        11  MOL       C17             4.0157838838        1.9099625792        5.2122666492  SYS             11   0.00000
       378        11  MOL       H18             3.0080108751        1.6831725762        3.5015523795  SYS             11   0.00000
       379        11  MOL       C19             6.2021994976        2.9436779551        5.0351507922  SYS             11   0.00000
       380        11  MOL       C20             8.6515680262        4.9844921828       -1.6390245180  SYS             11   0.00000
       381        11  MOL       C21             7.2483302283        4.6096572682       -3.6126012105  SYS             11   0.00000
       382        11  MOL       H22             5.4710392427        3.7267599466       -3.2035479216  SYS             11   0.00000
       383        11  MOL       C23             5.2232354493        2.3925835151        5.7970301136  SYS             11   0.00000
       384        11  MOL       H24             3.3473499646        1.5182457801        5.7618880785  SYS             11   0.00000
       385        11  MOL       H25             7.0020151779        3.2500826939        5.4470154438  SYS             11   0.00000
       386        11  MOL       H26             9.4568883066        5.3056183392       -1.2496507689  SYS             11   0.00000
       387        11  MOL       C27             8.4728969411        5.0855728619       -3.0137809320  SYS             11   0.00000
       388        11  MOL       C28             7.0845191300        4.7349182581       -5.0351507922  SYS             11   0.00000
       389        11  MOL       H29             5.3443714397        2.3276955731        6.7374309734  SYS             11   0.00000
       390        11  MOL       C30             9.4689071286        5.6714314365       -3.8768693146  SYS             11   0.00000
       391        11  MOL       C31             8.0634831783        5.2860126981       -5.7970301136  SYS             11   0.00000
       392        11  MOL       H32             6.2847034497        4.4285135193       -5.4470154438  SYS             11   0.00000
       393        11  MOL       C33             9.2709347438        5.7686336340       -5.2122666492  SYS             11   0.00000
       394        11  MOL       H34            10.2787077525        5.9954236371       -3.5015523795  SYS             11   0.00000
       395        11  MOL       H35             7.9423471879        5.3509006402       -6.7374309734  SYS             11   0.00000
       396        11  MOL       H36             9.9393686631        6.1603504331       -5.7618880785  SYS             11   0.00000
       397        12  MOL       C1              6.6295876404        9.8193372741       28.9204892233  SYS             12   0.00000
       398        12  MOL       C2              5.6376734599        9.2477697365       29.7526526150  SYS             12   0.00000
       399        12  MOL       C3              7.8604056639       10.3073136356       29.5249322274  SYS             12   0.00000
       400        12  MOL       C4              6.4502059494        9.9213081017       27.5330816767  SYS             12   0.00000
       401        12  MOL       C5              5.8163445450        9.1466890575       31.1274090289  SYS             12   0.00000
       402        12  MOL       H6              4.8323531795        8.9266435801       29.3632788658  SYS             12   0.00000
       403        12  MOL       C7              8.0168350287       10.1878972269       30.9165568182  SYS             12   0.00000
       404        12  MOL       C8              8.8415583952       10.8646195237       28.6941745171  SYS             12   0.00000
       405        12  MOL       C9              7.4313586807       10.4786139898       26.7023239664  SYS             12   0.00000
       406        12  MOL       H10             5.6367017626        9.6041141447       27.1605761044  SYS             12   0.00000
       407        12  MOL       C11             4.8203343574        8.5608304828       31.9904974115  SYS             12   0.00000
       408        12  MOL       C12             7.0409112578        9.6226046511       31.7262293074  SYS             12   0.00000
       409        12  MOL       H13             8.8182022433       10.5055019727       31.3171760186  SYS             12   0.00000
       410        12  MOL       H14             9.6550625819       11.1818134807       29.0666800894  SYS             12   0.00000
       411        12  MOL       C15             8.6621767041       10.9665903513       27.3067669705  SYS             12   0.00000
       412        12  MOL       C16             7.2749293158       10.5980303984       25.3106993756  SYS             12   0.00000
       413        12  MOL       C17             5.0183067422        8.4636282853       33.3258947461  SYS             12   0.00000
       414        12  MOL       H18             4.0105337335        8.2368382822       31.6151804764  SYS             12   0.00000
       415        12  MOL       C19             7.2047223561        9.4973436612       33.1487788891  SYS             12   0.00000
       416        12  MOL       C20             9.6540908846       11.5381578888       26.4746035789  SYS             12   0.00000
       417        12  MOL       C21             8.2508530868       11.1633229742       24.5010268865  SYS             12   0.00000
       418        12  MOL       H22             6.4735621012       10.2804256527       24.9100801753  SYS             12   0.00000
       419        12  MOL       C23             6.2257583078        8.9462492212       33.9106582105  SYS             12   0.00000
       420        12  MOL       H24             4.3498728230        8.0719114862       33.8755161754  SYS             12   0.00000
       421        12  MOL       H25             8.0045380364        9.8037484000       33.5606435407  SYS             12   0.00000
       422        12  MOL       H26            10.4594111651       11.8592840453       26.8639773280  SYS             12   0.00000
       423        12  MOL       C27             9.4754197995       11.6392385679       25.0998471649  SYS             12   0.00000
       424        12  MOL       C28             8.0870419885       11.2885839642       23.0784773048  SYS             12   0.00000
       425        12  MOL       H29             6.3468942982        8.8813612791       34.8510590703  SYS             12   0.00000
       426        12  MOL       C30            10.4714299871       12.2250971426       24.2367587823  SYS             12   0.00000
       427        12  MOL       C31             9.0660060368       11.8396784042       22.3165979833  SYS             12   0.00000
       428        12  MOL       H32             7.2872263082       10.9821792254       22.6666126531  SYS             12   0.00000
       429        12  MOL       C33            10.2734576023       12.3222993401       22.9013614477  SYS             12   0.00000
       430        12  MOL       H34            11.2812306110       12.5490893431       24.6120757174  SYS             12   0.00000
       431        12  MOL       H35             8.9448700464       11.9045663462       21.3761971235  SYS             12   0.00000
       432        12  MOL       H36            10.9418915215       12.7140161392       22.3517400184  SYS             12   0.00000
       433        13  MOL       C1              8.1609152749        7.6897574982       13.2499529221  SYS             13   0.00000
       434        13  MOL       C2              9.1528294554        8.2613250358       12.4177895304  SYS             13   0.00000
       435        13  MOL       C3              6.9300972514        7.2017811367       12.6455099180  SYS             13   0.00000
       436        13  MOL       C4              8.3402969660        7.5877866706       14.6373604687  SYS             13   0.00000
       437        13  MOL       C5              8.9741583703        8.3624057149       11.0430331165  SYS             13   0.00000
       438        13  MOL       H6              9.9581497358        8.5824511922       12.8071632795  SYS             13   0.00000
       439        13  MOL       C7              6.7736678866        7.3211975454       11.2538853272  SYS             13   0.00000
       440        13  MOL       C8              5.9489445201        6.6444752487       13.4762676283  SYS             13   0.00000
       441        13  MOL       C9              7.3591442346        7.0304807826       15.4681181789  SYS             13   0.00000
       442        13  MOL       H10             9.1538011527        7.9049806276       15.0098660409  SYS             13   0.00000
       443        13  MOL       C11             9.9701685579        8.9482642896       10.1799447339  SYS             13   0.00000
       444        13  MOL       C12             7.7495916575        7.8864901212       10.4442128380  SYS             13   0.00000
       445        13  MOL       H13             5.9723006720        7.0035927997       10.8532661268  SYS             13   0.00000
       446        13  MOL       H14             5.1354403334        6.3272812917       13.1037620560  SYS             13   0.00000
       447        13  MOL       C15             6.1283262112        6.5425044211       14.8636751748  SYS             13   0.00000
       448        13  MOL       C16             7.5155735995        6.9110643739       16.8597427697  SYS             13   0.00000
       449        13  MOL       C17             9.7721961731        9.0454664871        8.8445473993  SYS             13   0.00000
       450        13  MOL       H18            10.7799691818        9.2722564901       10.5552616690  SYS             13   0.00000
       451        13  MOL       C19             7.5857805592        8.0117511112        9.0216632563  SYS             13   0.00000
       452        13  MOL       C20             5.1364120307        5.9709368835       15.6958385665  SYS             13   0.00000
       453        13  MOL       C21             6.5396498286        6.3457717981       17.6694152589  SYS             13   0.00000
       454        13  MOL       H22             8.3169408141        7.2286691196       17.2603619701  SYS             13   0.00000
       455        13  MOL       C23             8.5647446075        8.5628455512        8.2597839349  SYS             13   0.00000
       456        13  MOL       H24            10.4406300923        9.4371832862        8.2949259700  SYS             13   0.00000
       457        13  MOL       H25             6.7859648789        7.7053463723        8.6097986047  SYS             13   0.00000
       458        13  MOL       H26             4.3310917502        5.6498107271       15.3064648174  SYS             13   0.00000
       459        13  MOL       C27             5.3150831158        5.8698562044       17.0705949804  SYS             13   0.00000
       460        13  MOL       C28             6.7034609268        6.2205108081       19.0919648406  SYS             13   0.00000
       461        13  MOL       H29             8.4436086171        8.6277334932        7.3193830750  SYS             13   0.00000
       462        13  MOL       C30             4.3190729282        5.2839976297       17.9336833630  SYS             13   0.00000
       463        13  MOL       C31             5.7244968786        5.6694163681       19.8538441620  SYS             13   0.00000
       464        13  MOL       H32             7.5032766071        6.5269155470       19.5038294922  SYS             13   0.00000
       465        13  MOL       C33             4.5170453130        5.1867954322       19.2690806976  SYS             13   0.00000
       466        13  MOL       H34             3.5092723043        4.9600054292       17.5583664279  SYS             13   0.00000
       467        13  MOL       H35             5.8456328689        5.6045284261       20.7942450219  SYS             13   0.00000
       468        13  MOL       H36             3.8486113938        4.7950786331       19.8187021269  SYS             13   0.00000
       469        14  MOL       C1              9.6331525301       23.0469499247       13.2499529221  SYS             14   0.00000
       470        14  MOL       C2             10.6250667106       23.6185174623       12.4177895304  SYS             14   0.00000
       471        14  MOL       C3              8.4023345066       22.5589735632       12.6455099180  SYS             14   0.00000
       472        14  MOL       C4              9.8125342212       22.9449790971       14.6373604687  SYS             14   0.00000
       473        14  MOL       C5             10.4463956255       23.7195981414       11.0430331165  SYS             14   0.00000
       474        14  MOL       H6             11.4303869910       23.9396436187       12.8071632795  SYS             14   0.00000
       475        14  MOL       C7              8.2459051418       22.6783899719       11.2538853272  SYS             14   0.00000
       476        14  MOL       C8              7.4211817753       22.0016676752       13.4762676283  SYS             14   0.00000
       477        14  MOL       C9              8.8313814898       22.3876732091       15.4681181789  SYS             14   0.00000
       478        14  MOL       H10            10.6260384079       23.2621730541       15.0098660409  SYS             14   0.00000
       479        14  MOL       C11            11.4424058131       24.3054567161       10.1799447339  SYS             14   0.00000
       480        14  MOL       C12             9.2218289127       23.2436825477       10.4442128380  SYS             14   0.00000
       481        14  MOL       H13             7.4445379272       22.3607852262       10.8532661268  SYS             14   0.00000
       482        14  MOL       H14             6.6076775886       21.6844737182       13.1037620560  SYS             14   0.00000
       483        14  MOL       C15             7.6005634664       21.8996968476       14.8636751748  SYS             14   0.00000
       484        14  MOL       C16             8.9878108547       22.2682568004       16.8597427697  SYS             14   0.00000
       485        14  MOL       C17            11.2444334283       24.4026589136        8.8445473993  SYS             14   0.00000
       486        14  MOL       H18            12.2522064370       24.6294489166       10.5552616690  SYS             14   0.00000
       487        14  MOL       C19             9.0580178144       23.3689435377        9.0216632563  SYS             14   0.00000
       488        14  MOL       C20             6.6086492859       21.3281293100       15.6958385665  SYS             14   0.00000
       489        14  MOL       C21             8.0118870838       21.7029642246       17.6694152589  SYS             14   0.00000
       490        14  MOL       H22             9.7891780693       22.5858615461       17.2603619701  SYS             14   0.00000
       491        14  MOL       C23            10.0369818627       23.9200379777        8.2597839349  SYS             14   0.00000
       492        14  MOL       H24            11.9128673475       24.7943757127        8.2949259700  SYS             14   0.00000
       493        14  MOL       H25             8.2582021342       23.0625387988        8.6097986047  SYS             14   0.00000
       494        14  MOL       H26             5.8033290054       21.0070031536       15.3064648174  SYS             14   0.00000
       495        14  MOL       C27             6.7873203710       21.2270486309       17.0705949804  SYS             14   0.00000
       496        14  MOL       C28             8.1756981821       21.5777032346       19.0919648406  SYS             14   0.00000
       497        14  MOL       H29             9.9158458723       23.9849259197        7.3193830750  SYS             14   0.00000
       498        14  MOL       C30             5.7913101834       20.6411900562       17.9336833630  SYS             14   0.00000
       499        14  MOL       C31             7.1967341338       21.0266087946       19.8538441620  SYS             14   0.00000
       500        14  MOL       H32             8.9755138623       21.8841079735       19.5038294922  SYS             14   0.00000
       501        14  MOL       C33             5.9892825682       20.5439878587       19.2690806976  SYS             14   0.00000
       502        14  MOL       H34             4.9815095595       20.3171978557       17.5583664279  SYS             14   0.00000
       503        14  MOL       H35             7.3178701242       20.9617208526       20.7942450219  SYS             14   0.00000
       504        14  MOL       H36             5.3208486490       20.1522710596       19.8187021269  SYS             14   0.00000
       505        15  MOL       C1              8.8970339025       15.3683537115       13.2499529221  SYS             15   0.00000
       506        15  MOL       C2              9.8889480830       15.9399212491       12.4177895304  SYS             15   0.00000
       507        15  MOL       C3              7.6662158790       14.8803773500       12.6455099180  SYS             15   0.00000
       508        15  MOL       C4              9.0764155936       15.2663828839       14.6373604687  SYS             15   0.00000
       509        15  MOL       C5              9.7102769979       16.0410019281       11.0430331165  SYS             15   0.00000
       510        15  MOL       H6             10.6942683634       16.2610474055       12.8071632795  SYS             15   0.00000
       511        15  MOL       C7              7.5097865142       14.9997937586       11.2538853272  SYS             15   0.00000
       512        15  MOL       C8              6.6850631477       14.3230714619       13.4762676283  SYS             15   0.00000
       513        15  MOL       C9              8.0952628622       14.7090769958       15.4681181789  SYS             15   0.00000
       514        15  MOL       H10             9.8899197803       15.5835768409       15.0098660409  SYS             15   0.00000
       515        15  MOL       C11            10.7062871855       16.6268605028       10.1799447339  SYS             15   0.00000
       516        15  MOL       C12             8.4857102851       15.5650863345       10.4442128380  SYS             15   0.00000
       517        15  MOL       H13             6.7084192996       14.6821890129       10.8532661268  SYS             15   0.00000
       518        15  MOL       H14             5.8715589610       14.0058775049       13.1037620560  SYS             15   0.00000
       519        15  MOL       C15             6.8644448388       14.2211006343       14.8636751748  SYS             15   0.00000
       520        15  MOL       C16             8.2516922271       14.5896605872       16.8597427697  SYS             15   0.00000
       521        15  MOL       C17            10.5083148007       16.7240627003        8.8445473993  SYS             15   0.00000
       522        15  MOL       H18            11.5160878094       16.9508527034       10.5552616690  SYS             15   0.00000
       523        15  MOL       C19             8.3218991868       15.6903473244        9.0216632563  SYS             15   0.00000
       524        15  MOL       C20             5.8725306583       13.6495330967       15.6958385665  SYS             15   0.00000
       525        15  MOL       C21             7.2757684562       14.0243680113       17.6694152589  SYS             15   0.00000
       526        15  MOL       H22             9.0530594417       14.9072653329       17.2603619701  SYS             15   0.00000
       527        15  MOL       C23             9.3008632351       16.2414417644        8.2597839349  SYS             15   0.00000
       528        15  MOL       H24            11.1767487199       17.1157794994        8.2949259700  SYS             15   0.00000
       529        15  MOL       H25             7.5220835066       15.3839425856        8.6097986047  SYS             15   0.00000
       530        15  MOL       H26             5.0672103778       13.3284069403       15.3064648174  SYS             15   0.00000
       531        15  MOL       C27             6.0512017434       13.5484524177       17.0705949804  SYS             15   0.00000
       532        15  MOL       C28             7.4395795545       13.8991070214       19.0919648406  SYS             15   0.00000
       533        15  MOL       H29             9.1797272447       16.3063297064        7.3193830750  SYS             15   0.00000
       534        15  MOL       C30             5.0551915558       12.9625938430       17.9336833630  SYS             15   0.00000
       535        15  MOL       C31             6.4606155062       13.3480125814       19.8538441620  SYS             15   0.00000
       536        15  MOL       H32             8.2393952347       14.2055117602       19.5038294922  SYS             15   0.00000
       537        15  MOL       C33             5.2531639406       12.8653916455       19.2690806976  SYS             15   0.00000
       538        15  MOL       H34             4.2453909319       12.6386016424       17.5583664279  SYS             15   0.00000
       539        15  MOL       H35             6.5817514965       13.2831246394       20.7942450219  SYS             15   0.00000
       540        15  MOL       H36             4.5847300214       12.4736748464       19.8187021269  SYS             15   0.00000
       541        16  MOL       C1              6.3631834096       10.9442677813        0.8068611264  SYS             16   0.00000
       542        16  MOL       C2              5.3712692290       10.3727002437        1.6390245180  SYS             16   0.00000
       543        16  MOL       C3              7.5940014330       11.4322441428        1.4113041305  SYS             16   0.00000
       544        16  MOL       C4              6.1838017185       11.0462386089       -0.5805464202  SYS             16   0.00000
       545        16  MOL       C5              5.5499403141       10.2716195646        3.0137809320  SYS             16   0.00000
       546        16  MOL       H6              4.5659489486       10.0515740873        1.2496507689  SYS             16   0.00000
       547        16  MOL       C7              7.7504307978       11.3128277341        2.8029287213  SYS             16   0.00000
       548        16  MOL       C8              8.5751541643       11.9895500308        0.5805464202  SYS             16   0.00000
       549        16  MOL       C9              7.1649544498       11.6035444969       -1.4113041305  SYS             16   0.00000
       550        16  MOL       H10             5.3702975318       10.7290446519       -0.9530519925  SYS             16   0.00000
       551        16  MOL       C11             4.5539301266        9.6857609900        3.8768693146  SYS             16   0.00000
       552        16  MOL       C12             6.7745070269       10.7475351583        3.6126012105  SYS             16   0.00000
       553        16  MOL       H13             8.5517980125       11.6304324799        3.2035479216  SYS             16   0.00000
       554        16  MOL       H14             9.3886583510       12.3067439878        0.9530519925  SYS             16   0.00000
       555        16  MOL       C15             8.3957724732       12.0915208585       -0.8068611264  SYS             16   0.00000
       556        16  MOL       C16             7.0085250850       11.7229609056       -2.8029287213  SYS             16   0.00000
       557        16  MOL       C17             4.7519025114        9.5885587924        5.2122666492  SYS             16   0.00000
       558        16  MOL       H18             3.7441295027        9.3617687894        3.5015523795  SYS             16   0.00000
       559        16  MOL       C19             6.9383181252       10.6222741684        5.0351507922  SYS             16   0.00000
       560        16  MOL       C20             9.3876866538       12.6630883960       -1.6390245180  SYS             16   0.00000
       561        16  MOL       C21             7.9844488559       12.2882534814       -3.6126012105  SYS             16   0.00000
       562        16  MOL       H22             6.2071578703       11.4053561599       -3.2035479216  SYS             16   0.00000
       563        16  MOL       C23             5.9593540769       10.0711797284        5.7970301136  SYS             16   0.00000
       564        16  MOL       H24             4.0834685922        9.1968419934        5.7618880785  SYS             16   0.00000
       565        16  MOL       H25             7.7381338055       10.9286789072        5.4470154438  SYS             16   0.00000
       566        16  MOL       H26            10.1930069342       12.9842145524       -1.2496507689  SYS             16   0.00000
       567        16  MOL       C27             9.2090155687       12.7641690751       -3.0137809320  SYS             16   0.00000
       568        16  MOL       C28             7.8206377576       12.4135144714       -5.0351507922  SYS             16   0.00000
       569        16  MOL       H29             6.0804900673       10.0062917863        6.7374309734  SYS             16   0.00000
       570        16  MOL       C30            10.2050257562       13.3500276498       -3.8768693146  SYS             16   0.00000
       571        16  MOL       C31             8.7996018059       12.9646089114       -5.7970301136  SYS             16   0.00000
       572        16  MOL       H32             7.0208220773       12.1071097325       -5.4470154438  SYS             16   0.00000
       573        16  MOL       C33            10.0070533714       13.4472298473       -5.2122666492  SYS             16   0.00000
       574        16  MOL       H34            11.0148263801       13.6740198503       -3.5015523795  SYS             16   0.00000
       575        16  MOL       H35             8.6784658155       13.0294968534       -6.7374309734  SYS             16   0.00000
       576        16  MOL       H36            10.6754872907       13.8389466464       -5.7618880785  SYS             16   0.00000
       577        17  MOL       C1              7.3657062681       17.4979334873       28.9204892233  SYS             17   0.00000
       578        17  MOL       C2              6.3737920875       16.9263659498       29.7526526150  SYS             17   0.00000
       579        17  MOL       C3              8.5965242915       17.9859098489       29.5249322274  SYS             17   0.00000
       580        17  MOL       C4              7.1863245770       17.5999043150       27.5330816767  SYS             17   0.00000
       581        17  MOL       C5              6.5524631726       16.8252852707       31.1274090289  SYS             17   0.00000
       582        17  MOL       H6              5.5684718071       16.6052397934       29.3632788658  SYS             17   0.00000
       583        17  MOL       C7              8.7529536563       17.8664934402       30.9165568182  SYS             17   0.00000
       584        17  MOL       C8              9.5776770228       18.5432157369       28.6941745171  SYS             17   0.00000
       585        17  MOL       C9              8.1674773083       18.1572102030       26.7023239664  SYS             17   0.00000
       586        17  MOL       H10             6.3728203903       17.2827103580       27.1605761044  SYS             17   0.00000
       587        17  MOL       C11             5.5564529850       16.2394266960       31.9904974115  SYS             17   0.00000
       588        17  MOL       C12             7.7770298854       17.3012008644       31.7262293074  SYS             17   0.00000
       589        17  MOL       H13             9.5543208710       18.1840981859       31.3171760186  SYS             17   0.00000
       590        17  MOL       H14            10.3911812095       18.8604096939       29.0666800894  SYS             17   0.00000
       591        17  MOL       C15             9.3982953317       18.6451865645       27.3067669705  SYS             17   0.00000
       592        17  MOL       C16             8.0110479434       18.2766266117       25.3106993756  SYS             17   0.00000
       593        17  MOL       C17             5.7544253698       16.1422244985       33.3258947461  SYS             17   0.00000
       594        17  MOL       H18             4.7466523611       15.9154344955       31.6151804764  SYS             17   0.00000
       595        17  MOL       C19             7.9408409837       17.1759398744       33.1487788891  SYS             17   0.00000
       596        17  MOL       C20            10.3902095123       19.2167541021       26.4746035789  SYS             17   0.00000
       597        17  MOL       C21             8.9869717144       18.8419191875       24.5010268865  SYS             17   0.00000
       598        17  MOL       H22             7.2096807288       17.9590218659       24.9100801753  SYS             17   0.00000
       599        17  MOL       C23             6.9618769354       16.6248454344       33.9106582105  SYS             17   0.00000
       600        17  MOL       H24             5.0859914506       15.7505076994       33.8755161754  SYS             17   0.00000
       601        17  MOL       H25             8.7406566640       17.4823446133       33.5606435407  SYS             17   0.00000
       602        17  MOL       H26            11.1955297927       19.5378802585       26.8639773280  SYS             17   0.00000
       603        17  MOL       C27            10.2115384271       19.3178347812       25.0998471649  SYS             17   0.00000
       604        17  MOL       C28             8.8231606161       18.9671801774       23.0784773048  SYS             17   0.00000
       605        17  MOL       H29             7.0830129258       16.5599574924       34.8510590703  SYS             17   0.00000
       606        17  MOL       C30            11.2075486147       19.9036933558       24.2367587823  SYS             17   0.00000
       607        17  MOL       C31             9.8021246644       19.5182746174       22.3165979833  SYS             17   0.00000
       608        17  MOL       H32             8.0233449358       18.6607754386       22.6666126531  SYS             17   0.00000
       609        17  MOL       C33            11.0095762299       20.0008955534       22.9013614477  SYS             17   0.00000
       610        17  MOL       H34            12.0173492386       20.2276855564       24.6120757174  SYS             17   0.00000
       611        17  MOL       H35             9.6809886740       19.5831625595       21.3761971235  SYS             17   0.00000
       612        17  MOL       H36            11.6780101491       20.3926123524       22.3517400184  SYS             17   0.00000
       613        18  MOL       C1              7.0993020372       18.6228639945        0.8068611264  SYS             18   0.00000
       614        18  MOL       C2              6.1073878566       18.0512964570        1.6390245180  SYS             18   0.00000
       615        18  MOL       C3              8.3301200606       19.1108403560        1.4113041305  SYS             18   0.00000
       616        18  MOL       C4              6.9199203461       18.7248348221       -0.5805464202  SYS             18   0.00000
       617        18  MOL       C5              6.2860589418       17.9502157779        3.0137809320  SYS             18   0.00000
       618        18  MOL       H6              5.3020675762       17.7301703005        1.2496507689  SYS             18   0.00000
       619        18  MOL       C7              8.4865494254       18.9914239474        2.8029287213  SYS             18   0.00000
       620        18  MOL       C8              9.3112727919       19.6681462441        0.5805464202  SYS             18   0.00000
       621        18  MOL       C9              7.9010730774       19.2821407102       -1.4113041305  SYS             18   0.00000
       622        18  MOL       H10             6.1064161594       18.4076408651       -0.9530519925  SYS             18   0.00000
       623        18  MOL       C11             5.2900487542       17.3643572032        3.8768693146  SYS             18   0.00000
       624        18  MOL       C12             7.5106256545       18.4261313716        3.6126012105  SYS             18   0.00000
       625        18  MOL       H13             9.2879166401       19.3090286931        3.2035479216  SYS             18   0.00000
       626        18  MOL       H14            10.1247769786       19.9853402011        0.9530519925  SYS             18   0.00000
       627        18  MOL       C15             9.1318911008       19.7701170717       -0.8068611264  SYS             18   0.00000
       628        18  MOL       C16             7.7446437126       19.4015571189       -2.8029287213  SYS             18   0.00000
       629        18  MOL       C17             5.4880211390       17.2671550057        5.2122666492  SYS             18   0.00000
       630        18  MOL       H18             4.4802481303       17.0403650027        3.5015523795  SYS             18   0.00000
       631        18  MOL       C19             7.6744367528       18.3008703816        5.0351507922  SYS             18   0.00000
       632        18  MOL       C20            10.1238052814       20.3416846093       -1.6390245180  SYS             18   0.00000
       633        18  MOL       C21             8.7205674835       19.9668496947       -3.6126012105  SYS             18   0.00000
       634        18  MOL       H22             6.9432764979       19.0839523731       -3.2035479216  SYS             18   0.00000
       635        18  MOL       C23             6.6954727045       17.7497759416        5.7970301136  SYS             18   0.00000
       636        18  MOL       H24             4.8195872198       16.8754382066        5.7618880785  SYS             18   0.00000
       637        18  MOL       H25             8.4742524331       18.6072751204        5.4470154438  SYS             18   0.00000
       638        18  MOL       H26            10.9291255618       20.6628107657       -1.2496507689  SYS             18   0.00000
       639        18  MOL       C27             9.9451341963       20.4427652884       -3.0137809320  SYS             18   0.00000
       640        18  MOL       C28             8.5567563852       20.0921106846       -5.0351507922  SYS             18   0.00000
       641        18  MOL       H29             6.8166086949       17.6848879996        6.7374309734  SYS             18   0.00000
       642        18  MOL       C30            10.9411443838       21.0286238630       -3.8768693146  SYS             18   0.00000
       643        18  MOL       C31             9.5357204335       20.6432051246       -5.7970301136  SYS             18   0.00000
       644        18  MOL       H32             7.7569407049       19.7857059458       -5.4470154438  SYS             18   0.00000
       645        18  MOL       C33            10.7431719991       21.1258260605       -5.2122666492  SYS             18   0.00000
       646        18  MOL       H34            11.7509450077       21.3526160636       -3.5015523795  SYS             18   0.00000
       647        18  MOL       H35             9.4145844431       20.7080930667       -6.7374309734  SYS             18   0.00000
       648        18  MOL       H36            11.4116059183       21.5175428596       -5.7618880785  SYS             18   0.00000
       649        19  MOL       C1             -0.6482352180        3.2656715680        0.8068611264  SYS             19   0.00000
       650        19  MOL       C2             -1.6401493986        2.6941040305        1.6390245180  SYS             19   0.00000
       651        19  MOL       C3              0.5825828054        3.7536479296        1.4113041305  SYS             19   0.00000
       652        19  MOL       C4             -0.8276169091        3.3676423957       -0.5805464202  SYS             19   0.00000
       653        19  MOL       C5             -1.4614783135        2.5930233514        3.0137809320  SYS             19   0.00000
       654        19  MOL       H6             -2.4454696790        2.3729778740        1.2496507689  SYS             19   0.00000
       655        19  MOL       C7              0.7390121702        3.6342315209        2.8029287213  SYS             19   0.00000
       656        19  MOL       C8              1.5637355367        4.3109538176        0.5805464202  SYS             19   0.00000
       657        19  MOL       C9              0.1535358222        3.9249482837       -1.4113041305  SYS             19   0.00000
       658        19  MOL       H10            -1.6411210958        3.0504484387       -0.9530519925  SYS             19   0.00000
       659        19  MOL       C11            -2.4574885010        2.0071647767        3.8768693146  SYS             19   0.00000
       660        19  MOL       C12            -0.2369116007        3.0689389451        3.6126012105  SYS             19   0.00000
       661        19  MOL       H13             1.5403793849        3.9518362666        3.2035479216  SYS             19   0.00000
       662        19  MOL       H14             2.3772397234        4.6281477746        0.9530519925  SYS             19   0.00000
       663        19  MOL       C15             1.3843538456        4.4129246452       -0.8068611264  SYS             19   0.00000
       664        19  MOL       C16            -0.0028935426        4.0443646924       -2.8029287213  SYS             19   0.00000
       665        19  MOL       C17            -2.2595161162        1.9099625792        5.2122666492  SYS             19   0.00000
       666        19  MOL       H18            -3.2672891249        1.6831725762        3.5015523795  SYS             19   0.00000
       667        19  MOL       C19            -0.0731005024        2.9436779551        5.0351507922  SYS             19   0.00000
       668        19  MOL       C20             2.3762680262        4.9844921828       -1.6390245180  SYS             19   0.00000
       669        19  MOL       C21             0.9730302283        4.6096572682       -3.6126012105  SYS             19   0.00000
       670        19  MOL       H22            -0.8042607573        3.7267599466       -3.2035479216  SYS             19   0.00000
       671        19  MOL       C23            -1.0520645507        2.3925835151        5.7970301136  SYS             19   0.00000
       672        19  MOL       H24            -2.9279500354        1.5182457801        5.7618880785  SYS             19   0.00000
       673        19  MOL       H25             0.7267151779        3.2500826939        5.4470154438  SYS             19   0.00000
       674        19  MOL       H26             3.1815883066        5.3056183392       -1.2496507689  SYS             19   0.00000
       675        19  MOL       C27             2.1975969411        5.0855728619       -3.0137809320  SYS             19   0.00000
       676        19  MOL       C28             0.8092191300        4.7349182581       -5.0351507922  SYS             19   0.00000
       677        19  MOL       H29            -0.9309285603        2.3276955731        6.7374309734  SYS             19   0.00000
       678        19  MOL       C30             3.1936071286        5.6714314365       -3.8768693146  SYS             19   0.00000
       679        19  MOL       C31             1.7881831783        5.2860126981       -5.7970301136  SYS             19   0.00000
       680        19  MOL       H32             0.0094034497        4.4285135193       -5.4470154438  SYS             19   0.00000
       681        19  MOL       C33             2.9956347438        5.7686336340       -5.2122666492  SYS             19   0.00000
       682        19  MOL       H34             4.0034077525        5.9954236371       -3.5015523795  SYS             19   0.00000
       683        19  MOL       H35             1.6670471879        5.3509006402       -6.7374309734  SYS             19   0.00000
       684        19  MOL       H36             3.6640686631        6.1603504331       -5.7618880785  SYS             19   0.00000
       685        20  MOL       C1              0.0878834096       10.9442677813        0.8068611264  SYS             20   0.00000
       686        20  MOL       C2             -0.9040307710       10.3727002437        1.6390245180  SYS             20   0.00000
       687        20  MOL       C3              1.3187014330       11.4322441428        1.4113041305  SYS             20   0.00000
       688        20  MOL       C4             -0.0914982815       11.0462386089       -0.5805464202  SYS             20   0.00000
       689        20  MOL       C5             -0.7253596859       10.2716195646        3.0137809320  SYS             20   0.00000
       690        20  MOL       H6             -1.7093510514       10.0515740873        1.2496507689  SYS             20   0.00000
       691        20  MOL       C7              1.4751307978       11.3128277341        2.8029287213  SYS             20   0.00000
       692        20  MOL       C8              2.2998541643       11.9895500308        0.5805464202  SYS             20   0.00000
       693        20  MOL       C9              0.8896544498       11.6035444969       -1.4113041305  SYS             20   0.00000
       694        20  MOL       H10            -0.9050024682       10.7290446519       -0.9530519925  SYS             20   0.00000
       695        20  MOL       C11            -1.7213698734        9.6857609900        3.8768693146  SYS             20   0.00000
       696        20  MOL       C12             0.4992070269       10.7475351583        3.6126012105  SYS             20   0.00000
       697        20  MOL       H13             2.2764980125       11.6304324799        3.2035479216  SYS             20   0.00000
       698        20  MOL       H14             3.1133583510       12.3067439878        0.9530519925  SYS             20   0.00000
       699        20  MOL       C15             2.1204724732       12.0915208585       -0.8068611264  SYS             20   0.00000
       700        20  MOL       C16             0.7332250850       11.7229609056       -2.8029287213  SYS             20   0.00000
       701        20  MOL       C17            -1.5233974886        9.5885587924        5.2122666492  SYS             20   0.00000
       702        20  MOL       H18            -2.5311704973        9.3617687894        3.5015523795  SYS             20   0.00000
       703        20  MOL       C19             0.6630181252       10.6222741684        5.0351507922  SYS             20   0.00000
       704        20  MOL       C20             3.1123866538       12.6630883960       -1.6390245180  SYS             20   0.00000
       705        20  MOL       C21             1.7091488559       12.2882534814       -3.6126012105  SYS             20   0.00000
       706        20  MOL       H22            -0.0681421297       11.4053561599       -3.2035479216  SYS             20   0.00000
       707        20  MOL       C23            -0.3159459231       10.0711797284        5.7970301136  SYS             20   0.00000
       708        20  MOL       H24            -2.1918314078        9.1968419934        5.7618880785  SYS             20   0.00000
       709        20  MOL       H25             1.4628338055       10.9286789072        5.4470154438  SYS             20   0.00000
       710        20  MOL       H26             3.9177069342       12.9842145524       -1.2496507689  SYS             20   0.00000
       711        20  MOL       C27             2.9337155687       12.7641690751       -3.0137809320  SYS             20   0.00000
       712        20  MOL       C28             1.5453377576       12.4135144714       -5.0351507922  SYS             20   0.00000
       713        20  MOL       H29            -0.1948099327       10.0062917863        6.7374309734  SYS             20   0.00000
       714        20  MOL       C30             3.9297257562       13.3500276498       -3.8768693146  SYS             20   0.00000
       715        20  MOL       C31             2.5243018059       12.9646089114       -5.7970301136  SYS             20   0.00000
       716        20  MOL       H32             0.7455220773       12.1071097325       -5.4470154438  SYS             20   0.00000
       717        20  MOL       C33             3.7317533714       13.4472298473       -5.2122666492  SYS             20   0.00000
       718        20  MOL       H34             4.7395263801       13.6740198503       -3.5015523795  SYS             20   0.00000
       719        20  MOL       H35             2.4031658155       13.0294968534       -6.7374309734  SYS             20   0.00000
       720        20  MOL       H36             4.4001872907       13.8389466464       -5.7618880785  SYS             20   0.00000
       721        21  MOL       C1              2.8565911008       19.7701170717       -0.8068611264  SYS             21   0.00000
       722        21  MOL       C2              3.8485052814       20.3416846093       -1.6390245180  SYS             21   0.00000
       723        21  MOL       C3              1.6257730774       19.2821407102       -1.4113041305  SYS             21   0.00000
       724        21  MOL       C4              3.0359727919       19.6681462441        0.5805464202  SYS             21   0.00000
       725        21  MOL       C5              3.6698341963       20.4427652884       -3.0137809320  SYS             21   0.00000
       726        21  MOL       H6              4.6538255618       20.6628107657       -1.2496507689  SYS             21   0.00000
       727        21  MOL       C7              1.4693437126       19.4015571189       -2.8029287213  SYS             21   0.00000
       728        21  MOL       C8              0.6446203461       18.7248348221       -0.5805464202  SYS             21   0.00000
       729        21  MOL       C9              2.0548200606       19.1108403560        1.4113041305  SYS             21   0.00000
       730        21  MOL       H10             3.8494769786       19.9853402011        0.9530519925  SYS             21   0.00000
       731        21  MOL       C11             4.6658443838       21.0286238630       -3.8768693146  SYS             21   0.00000
       732        21  MOL       C12             2.4452674835       19.9668496947       -3.6126012105  SYS             21   0.00000
       733        21  MOL       H13             0.6679764979       19.0839523731       -3.2035479216  SYS             21   0.00000
       734        21  MOL       H14            -0.1688838406       18.4076408651       -0.9530519925  SYS             21   0.00000
       735        21  MOL       C15             0.8240020372       18.6228639945        0.8068611264  SYS             21   0.00000
       736        21  MOL       C16             2.2112494254       18.9914239474        2.8029287213  SYS             21   0.00000
       737        21  MOL       C17             4.4678719991       21.1258260605       -5.2122666492  SYS             21   0.00000
       738        21  MOL       H18             5.4756450077       21.3526160636       -3.5015523795  SYS             21   0.00000
       739        21  MOL       C19             2.2814563852       20.0921106846       -5.0351507922  SYS             21   0.00000
       740        21  MOL       C20            -0.1679121434       18.0512964570        1.6390245180  SYS             21   0.00000
       741        21  MOL       C21             1.2353256545       18.4261313716        3.6126012105  SYS             21   0.00000
       742        21  MOL       H22             3.0126166401       19.3090286931        3.2035479216  SYS             21   0.00000
       743        21  MOL       C23             3.2604204335       20.6432051246       -5.7970301136  SYS             21   0.00000
       744        21  MOL       H24             5.1363059183       21.5175428596       -5.7618880785  SYS             21   0.00000
       745        21  MOL       H25             1.4816407049       19.7857059458       -5.4470154438  SYS             21   0.00000
       746        21  MOL       H26            -0.9732324238       17.7301703005        1.2496507689  SYS             21   0.00000
       747        21  MOL       C27             0.0107589418       17.9502157779        3.0137809320  SYS             21   0.00000
       748        21  MOL       C28             1.3991367528       18.3008703816        5.0351507922  SYS             21   0.00000
       749        21  MOL       H29             3.1392844431       20.7080930667       -6.7374309734  SYS             21   0.00000
       750        21  MOL       C30            -0.9852512458       17.3643572032        3.8768693146  SYS             21   0.00000
       751        21  MOL       C31             0.4201727045       17.7497759416        5.7970301136  SYS             21   0.00000
       752        21  MOL       H32             2.1989524331       18.6072751204        5.4470154438  SYS             21   0.00000
       753        21  MOL       C33            -0.7872788610       17.2671550057        5.2122666492  SYS             21   0.00000
       754        21  MOL       H34            -1.7950518697       17.0403650027        3.5015523795  SYS             21   0.00000
       755        21  MOL       H35             0.5413086949       17.6848879996        6.7374309734  SYS             21   0.00000
       756        21  MOL       H36            -1.4557127802       16.8754382066        5.7618880785  SYS             21   0.00000
       757        22  MOL       C1             -0.1469737888        6.5425044211       14.8636751748  SYS             22   0.00000
       758        22  MOL       C2             -1.1388879693        5.9709368835       15.6958385665  SYS             22   0.00000
       759        22  MOL       C3              1.0838442346        7.0304807826       15.4681181789  SYS             22   0.00000
       760        22  MOL       C4             -0.3263554799        6.6444752487       13.4762676283  SYS             22   0.00000
       761        22  MOL       C5             -0.9602168842        5.8698562044       17.0705949804  SYS             22   0.00000
       762        22  MOL       H6             -1.9442082498        5.6498107271       15.3064648174  SYS             22   0.00000
       763        22  MOL       C7              1.2402735995        6.9110643739       16.8597427697  SYS             22   0.00000
       764        22  MOL       C8              2.0649969660        7.5877866706       14.6373604687  SYS             22   0.00000
       765        22  MOL       C9              0.6547972514        7.2017811367       12.6455099180  SYS             22   0.00000
       766        22  MOL       H10            -1.1398596666        6.3272812917       13.1037620560  SYS             22   0.00000
       767        22  MOL       C11            -1.9562270718        5.2839976297       17.9336833630  SYS             22   0.00000
       768        22  MOL       C12             0.2643498286        6.3457717981       17.6694152589  SYS             22   0.00000
       769        22  MOL       H13             2.0416408141        7.2286691196       17.2603619701  SYS             22   0.00000
       770        22  MOL       H14             2.8785011527        7.9049806276       15.0098660409  SYS             22   0.00000
       771        22  MOL       C15             1.8856152749        7.6897574982       13.2499529221  SYS             22   0.00000
       772        22  MOL       C16             0.4983678866        7.3211975454       11.2538853272  SYS             22   0.00000
       773        22  MOL       C17            -1.7582546870        5.1867954322       19.2690806976  SYS             22   0.00000
       774        22  MOL       H18            -2.7660276957        4.9600054292       17.5583664279  SYS             22   0.00000
       775        22  MOL       C19             0.4281609268        6.2205108081       19.0919648406  SYS             22   0.00000
       776        22  MOL       C20             2.8775294554        8.2613250358       12.4177895304  SYS             22   0.00000
       777        22  MOL       C21             1.4742916575        7.8864901212       10.4442128380  SYS             22   0.00000
       778        22  MOL       H22            -0.3029993280        7.0035927997       10.8532661268  SYS             22   0.00000
       779        22  MOL       C23            -0.5508031214        5.6694163681       19.8538441620  SYS             22   0.00000
       780        22  MOL       H24            -2.4266886062        4.7950786331       19.8187021269  SYS             22   0.00000
       781        22  MOL       H25             1.2279766071        6.5269155470       19.5038294922  SYS             22   0.00000
       782        22  MOL       H26             3.6828497358        8.5824511922       12.8071632795  SYS             22   0.00000
       783        22  MOL       C27             2.6988583703        8.3624057149       11.0430331165  SYS             22   0.00000
       784        22  MOL       C28             1.3104805592        8.0117511112        9.0216632563  SYS             22   0.00000
       785        22  MOL       H29            -0.4296671311        5.6045284261       20.7942450219  SYS             22   0.00000
       786        22  MOL       C30             3.6948685579        8.9482642896       10.1799447339  SYS             22   0.00000
       787        22  MOL       C31             2.2894446075        8.5628455512        8.2597839349  SYS             22   0.00000
       788        22  MOL       H32             0.5106648789        7.7053463723        8.6097986047  SYS             22   0.00000
       789        22  MOL       C33             3.4968961731        9.0454664871        8.8445473993  SYS             22   0.00000
       790        22  MOL       H34             4.5046691818        9.2722564901       10.5552616690  SYS             22   0.00000
       791        22  MOL       H35             2.1683086171        8.6277334932        7.3193830750  SYS             22   0.00000
       792        22  MOL       H36             4.1653300923        9.4371832862        8.2949259700  SYS             22   0.00000
       793        23  MOL       C1              0.3542876404        9.8193372741       28.9204892233  SYS             23   0.00000
       794        23  MOL       C2             -0.6376265401        9.2477697365       29.7526526150  SYS             23   0.00000
       795        23  MOL       C3              1.5851056639       10.3073136356       29.5249322274  SYS             23   0.00000
       796        23  MOL       C4              0.1749059494        9.9213081017       27.5330816767  SYS             23   0.00000
       797        23  MOL       C5             -0.4589554550        9.1466890575       31.1274090289  SYS             23   0.00000
       798        23  MOL       H6             -1.4429468205        8.9266435801       29.3632788658  SYS             23   0.00000
       799        23  MOL       C7              1.7415350287       10.1878972269       30.9165568182  SYS             23   0.00000
       800        23  MOL       C8              2.5662583952       10.8646195237       28.6941745171  SYS             23   0.00000
       801        23  MOL       C9              1.1560586807       10.4786139898       26.7023239664  SYS             23   0.00000
       802        23  MOL       H10            -0.6385982374        9.6041141447       27.1605761044  SYS             23   0.00000
       803        23  MOL       C11            -1.4549656426        8.5608304828       31.9904974115  SYS             23   0.00000
       804        23  MOL       C12             0.7656112578        9.6226046511       31.7262293074  SYS             23   0.00000
       805        23  MOL       H13             2.5429022433       10.5055019727       31.3171760186  SYS             23   0.00000
       806        23  MOL       H14             3.3797625819       11.1818134807       29.0666800894  SYS             23   0.00000
       807        23  MOL       C15             2.3868767041       10.9665903513       27.3067669705  SYS             23   0.00000
       808        23  MOL       C16             0.9996293158       10.5980303984       25.3106993756  SYS             23   0.00000
       809        23  MOL       C17            -1.2569932578        8.4636282853       33.3258947461  SYS             23   0.00000
       810        23  MOL       H18            -2.2647662665        8.2368382822       31.6151804764  SYS             23   0.00000
       811        23  MOL       C19             0.9294223561        9.4973436612       33.1487788891  SYS             23   0.00000
       812        23  MOL       C20             3.3787908846       11.5381578888       26.4746035789  SYS             23   0.00000
       813        23  MOL       C21             1.9755530868       11.1633229742       24.5010268865  SYS             23   0.00000
       814        23  MOL       H22             0.1982621012       10.2804256527       24.9100801753  SYS             23   0.00000
       815        23  MOL       C23            -0.0495416922        8.9462492212       33.9106582105  SYS             23   0.00000
       816        23  MOL       H24            -1.9254271770        8.0719114862       33.8755161754  SYS             23   0.00000
       817        23  MOL       H25             1.7292380364        9.8037484000       33.5606435407  SYS             23   0.00000
       818        23  MOL       H26             4.1841111651       11.8592840453       26.8639773280  SYS             23   0.00000
       819        23  MOL       C27             3.2001197995       11.6392385679       25.0998471649  SYS             23   0.00000
       820        23  MOL       C28             1.8117419885       11.2885839642       23.0784773048  SYS             23   0.00000
       821        23  MOL       H29             0.0715942982        8.8813612791       34.8510590703  SYS             23   0.00000
       822        23  MOL       C30             4.1961299871       12.2250971426       24.2367587823  SYS             23   0.00000
       823        23  MOL       C31             2.7907060368       11.8396784042       22.3165979833  SYS             23   0.00000
       824        23  MOL       H32             1.0119263082       10.9821792254       22.6666126531  SYS             23   0.00000
       825        23  MOL       C33             3.9981576023       12.3222993401       22.9013614477  SYS             23   0.00000
       826        23  MOL       H34             5.0059306110       12.5490893431       24.6120757174  SYS             23   0.00000
       827        23  MOL       H35             2.6695700464       11.9045663462       21.3761971235  SYS             23   0.00000
       828        23  MOL       H36             4.6665915215       12.7140161392       22.3517400184  SYS             23   0.00000
       829        24  MOL       C1             10.1269550475       14.2593556595       29.1060391687  SYS             24   0.00000
       830        24  MOL       C2              9.1425918767       14.2642645760       30.1251581872  SYS             24   0.00000
       831        24  MOL       C3             11.3710519310       13.5302065878       29.3379766005  SYS             24   0.00000
       832        24  MOL       C4              9.9563699620       14.9394609494       27.8929361164  SYS             24   0.00000
       833        24  MOL       C5              9.3382264046       13.6050137848       31.3256101070  SYS             24   0.00000
       834        24  MOL       H6              8.3282914503       14.7319255304       29.9803730025  SYS             24   0.00000
       835        24  MOL       C7             11.5414841075       12.8534906238       30.5623251042  SYS             24   0.00000
       836        24  MOL       C8             12.3468130101       13.5250628892       28.3343200775  SYS             24   0.00000
       837        24  MOL       C9             10.9321310411       14.9343172508       26.8892795933  SYS             24   0.00000
       838        24  MOL       H10             9.1427180209       15.4119344558       27.7622077457  SYS             24   0.00000
       839        24  MOL       C11             8.3539959323       13.6218611803       32.3630029838  SYS             24   0.00000
       840        24  MOL       C12            10.5689060185       12.8806968570       31.5519248132  SYS             24   0.00000
       841        24  MOL       H13            12.3426784924       12.3659680165       30.7141386959  SYS             24   0.00000
       842        24  MOL       H14            13.1604649513       13.0525893828       28.4650484481  SYS             24   0.00000
       843        24  MOL       C15            12.1762279247       14.2051681792       27.1212170251  SYS             24   0.00000
       844        24  MOL       C16            10.7616988646       15.6110332149       25.6649310897  SYS             24   0.00000
       845        24  MOL       C17             8.5651958713       12.9783246524       33.5353412754  SYS             24   0.00000
       846        24  MOL       H18             7.5392951209       14.0907203747       32.2266518875  SYS             24   0.00000
       847        24  MOL       C19            10.7407202681       12.2208444170       32.8057926263  SYS             24   0.00000
       848        24  MOL       C20            13.1605910955       14.2002592626       26.1020980066  SYS             24   0.00000
       849        24  MOL       C21            11.7342769537       15.5838269816       24.6753313807  SYS             24   0.00000
       850        24  MOL       H22             9.9605044797       16.0985558222       25.5131174979  SYS             24   0.00000
       851        24  MOL       C23             9.7830534199       12.2638774066       33.7644673444  SYS             24   0.00000
       852        24  MOL       H24             7.8986920701       13.0015648789       34.2114740311  SYS             24   0.00000
       853        24  MOL       H25            11.5433378919       11.7396700810       32.9716630321  SYS             24   0.00000
       854        24  MOL       H26            13.9748915218       13.7325983082       26.2468831913  SYS             24   0.00000
       855        24  MOL       C27            12.9649565676       14.8595100538       24.9016460868  SYS             24   0.00000
       856        24  MOL       C28            11.5624627040       16.2436794216       23.4214635675  SYS             24   0.00000
       857        24  MOL       H29             9.9214668901       11.8187915163       34.5924136918  SYS             24   0.00000
       858        24  MOL       C30            13.9491870399       14.8426626583       23.8642532101  SYS             24   0.00000
       859        24  MOL       C31            12.5201295523       16.2006464320       22.4627888494  SYS             24   0.00000
       860        24  MOL       H32            10.7598450802       16.7248537576       23.2555931618  SYS             24   0.00000
       861        24  MOL       C33            13.7379871008       15.4861991862       22.6919149184  SYS             24   0.00000
       862        24  MOL       H34            14.7638878512       14.3738034639       24.0006043063  SYS             24   0.00000
       863        24  MOL       H35            12.3817160820       16.6457323223       21.6348425020  SYS             24   0.00000
       864        24  MOL       H36            14.4044909020       15.4629589597       22.0157821627  SYS             24   0.00000
       865        25  MOL       C1              2.6217339025       15.3683537115       13.2499529221  SYS             25   0.00000
       866        25  MOL       C2              3.6136480830       15.9399212491       12.4177895304  SYS             25   0.00000
       867        25  MOL       C3              1.3909158790       14.8803773500       12.6455099180  SYS             25   0.00000
       868        25  MOL       C4              2.8011155936       15.2663828839       14.6373604687  SYS             25   0.00000
       869        25  MOL       C5              3.4349769979       16.0410019281       11.0430331165  SYS             25   0.00000
       870        25  MOL       H6              4.4189683634       16.2610474055       12.8071632795  SYS             25   0.00000
       871        25  MOL       C7              1.2344865142       14.9997937586       11.2538853272  SYS             25   0.00000
       872        25  MOL       C8              0.4097631477       14.3230714619       13.4762676283  SYS             25   0.00000
       873        25  MOL       C9              1.8199628622       14.7090769958       15.4681181789  SYS             25   0.00000
       874        25  MOL       H10             3.6146197803       15.5835768409       15.0098660409  SYS             25   0.00000
       875        25  MOL       C11             4.4309871855       16.6268605028       10.1799447339  SYS             25   0.00000
       876        25  MOL       C12             2.2104102851       15.5650863345       10.4442128380  SYS             25   0.00000
       877        25  MOL       H13             0.4331192996       14.6821890129       10.8532661268  SYS             25   0.00000
       878        25  MOL       H14            -0.4037410390       14.0058775049       13.1037620560  SYS             25   0.00000
       879        25  MOL       C15             0.5891448388       14.2211006343       14.8636751748  SYS             25   0.00000
       880        25  MOL       C16             1.9763922271       14.5896605872       16.8597427697  SYS             25   0.00000
       881        25  MOL       C17             4.2330148007       16.7240627003        8.8445473993  SYS             25   0.00000
       882        25  MOL       H18             5.2407878094       16.9508527034       10.5552616690  SYS             25   0.00000
       883        25  MOL       C19             2.0465991868       15.6903473244        9.0216632563  SYS             25   0.00000
       884        25  MOL       C20            -0.4027693417       13.6495330967       15.6958385665  SYS             25   0.00000
       885        25  MOL       C21             1.0004684562       14.0243680113       17.6694152589  SYS             25   0.00000
       886        25  MOL       H22             2.7777594417       14.9072653329       17.2603619701  SYS             25   0.00000
       887        25  MOL       C23             3.0255632351       16.2414417644        8.2597839349  SYS             25   0.00000
       888        25  MOL       H24             4.9014487199       17.1157794994        8.2949259700  SYS             25   0.00000
       889        25  MOL       H25             1.2467835066       15.3839425856        8.6097986047  SYS             25   0.00000
       890        25  MOL       H26            -1.2080896222       13.3284069403       15.3064648174  SYS             25   0.00000
       891        25  MOL       C27            -0.2240982566       13.5484524177       17.0705949804  SYS             25   0.00000
       892        25  MOL       C28             1.1642795545       13.8991070214       19.0919648406  SYS             25   0.00000
       893        25  MOL       H29             2.9044272447       16.3063297064        7.3193830750  SYS             25   0.00000
       894        25  MOL       C30            -1.2201084442       12.9625938430       17.9336833630  SYS             25   0.00000
       895        25  MOL       C31             0.1853155062       13.3480125814       19.8538441620  SYS             25   0.00000
       896        25  MOL       H32             1.9640952347       14.2055117602       19.5038294922  SYS             25   0.00000
       897        25  MOL       C33            -1.0221360594       12.8653916455       19.2690806976  SYS             25   0.00000
       898        25  MOL       H34            -2.0299090681       12.6386016424       17.5583664279  SYS             25   0.00000
       899        25  MOL       H35             0.3064514965       13.2831246394       20.7942450219  SYS             25   0.00000
       900        25  MOL       H36            -1.6905699786       12.4736748464       19.8187021269  SYS             25   0.00000
       901        26  MOL       C1             11.5991923027       29.6165480860       29.1060391687  SYS             26   0.00000
       902        26  MOL       C2             10.6148291319       29.6214570025       30.1251581872  SYS             26   0.00000
       903        26  MOL       C3             12.8432891863       28.8873990143       29.3379766005  SYS             26   0.00000
       904        26  MOL       C4             11.4286072172       30.2966533759       27.8929361164  SYS             26   0.00000
       905        26  MOL       C5             10.8104636598       28.9622062113       31.3256101070  SYS             26   0.00000
       906        26  MOL       H6              9.8005287056       30.0891179569       29.9803730025  SYS             26   0.00000
       907        26  MOL       C7             13.0137213627       28.2106830503       30.5623251042  SYS             26   0.00000
       908        26  MOL       C8             13.8190502653       28.8822553157       28.3343200775  SYS             26   0.00000
       909        26  MOL       C9             12.4043682963       30.2915096773       26.8892795933  SYS             26   0.00000
       910        26  MOL       H10            10.6149552761       30.7691268823       27.7622077457  SYS             26   0.00000
       911        26  MOL       C11             9.8262331875       28.9790536068       32.3630029838  SYS             26   0.00000
       912        26  MOL       C12            12.0411432737       28.2378892835       31.5519248132  SYS             26   0.00000
       913        26  MOL       H13            13.8149157476       27.7231604429       30.7141386959  SYS             26   0.00000
       914        26  MOL       H14            14.6327022065       28.4097818093       28.4650484481  SYS             26   0.00000
       915        26  MOL       C15            13.6484651799       29.5623606056       27.1212170251  SYS             26   0.00000
       916        26  MOL       C16            12.2339361199       30.9682256413       25.6649310897  SYS             26   0.00000
       917        26  MOL       C17            10.0374331265       28.3355170789       33.5353412754  SYS             26   0.00000
       918        26  MOL       H18             9.0115323761       29.4479128012       32.2266518875  SYS             26   0.00000
       919        26  MOL       C19            12.2129575234       27.5780368435       32.8057926263  SYS             26   0.00000
       920        26  MOL       C20            14.6328283507       29.5574516891       26.1020980066  SYS             26   0.00000
       921        26  MOL       C21            13.2065142089       30.9410194081       24.6753313807  SYS             26   0.00000
       922        26  MOL       H22            11.4327417350       31.4557482487       25.5131174979  SYS             26   0.00000
       923        26  MOL       C23            11.2552906751       27.6210698331       33.7644673444  SYS             26   0.00000
       924        26  MOL       H24             9.3709293253       28.3587573054       34.2114740311  SYS             26   0.00000
       925        26  MOL       H25            13.0155751471       27.0968625075       32.9716630321  SYS             26   0.00000
       926        26  MOL       H26            15.4471287770       29.0897907347       26.2468831913  SYS             26   0.00000
       927        26  MOL       C27            14.4371938228       30.2167024803       24.9016460868  SYS             26   0.00000
       928        26  MOL       C28            13.0346999592       31.6008718481       23.4214635675  SYS             26   0.00000
       929        26  MOL       H29            11.3937041453       27.1759839428       34.5924136918  SYS             26   0.00000
       930        26  MOL       C30            15.4214242951       30.1998550848       23.8642532101  SYS             26   0.00000
       931        26  MOL       C31            13.9923668075       31.5578388585       22.4627888494  SYS             26   0.00000
       932        26  MOL       H32            12.2320823354       32.0820461841       23.2555931618  SYS             26   0.00000
       933        26  MOL       C33            15.2102243560       30.8433916127       22.6919149184  SYS             26   0.00000
       934        26  MOL       H34            16.2361251064       29.7309958904       24.0006043063  SYS             26   0.00000
       935        26  MOL       H35            13.8539533372       32.0029247488       21.6348425020  SYS             26   0.00000
       936        26  MOL       H36            15.8767281572       30.8201513862       22.0157821627  SYS             26   0.00000
       937        27  MOL       C1             10.3618122458       18.6611190197       15.0492251203  SYS             27   0.00000
       938        27  MOL       C2              9.3774490751       18.6660279363       16.0683441388  SYS             27   0.00000
       939        27  MOL       C3             11.6059091294       17.9319699480       15.2811625521  SYS             27   0.00000
       940        27  MOL       C4             10.1912271604       19.3412243096       13.8361220679  SYS             27   0.00000
       941        27  MOL       C5              9.5730836030       18.0067771450       17.2687960585  SYS             27   0.00000
       942        27  MOL       H6              8.5631486487       19.1336888906       15.9235589541  SYS             27   0.00000
       943        27  MOL       C7             11.7763413059       17.2552539840       16.5055110557  SYS             27   0.00000
       944        27  MOL       C8             12.5816702085       17.9268262494       14.2775060290  SYS             27   0.00000
       945        27  MOL       C9             11.1669882395       19.3360806110       12.8324655448  SYS             27   0.00000
       946        27  MOL       H10             9.3775752192       19.8136978160       13.7053936972  SYS             27   0.00000
       947        27  MOL       C11             8.5888531306       18.0236245405       18.3061889353  SYS             27   0.00000
       948        27  MOL       C12            10.8037632169       17.2824602172       17.4951107647  SYS             27   0.00000
       949        27  MOL       H13            12.5775356908       16.7677313767       16.6573246474  SYS             27   0.00000
       950        27  MOL       H14            13.3953221497       17.4543527430       14.4082343997  SYS             27   0.00000
       951        27  MOL       C15            12.4110851230       18.6069315394       13.0644029766  SYS             27   0.00000
       952        27  MOL       C16            10.9965560630       20.0127965751       11.6081170412  SYS             27   0.00000
       953        27  MOL       C17             8.8000530697       17.3800880126       19.4785272269  SYS             27   0.00000
       954        27  MOL       H18             7.7741523193       18.4924837350       18.1698378390  SYS             27   0.00000
       955        27  MOL       C19            10.9755774665       16.6226077772       18.7489785778  SYS             27   0.00000
       956        27  MOL       C20            13.3954482938       18.6020226228       12.0452839581  SYS             27   0.00000
       957        27  MOL       C21            11.9691341520       19.9855903419       10.6185173322  SYS             27   0.00000
       958        27  MOL       H22            10.1953616781       20.5003191824       11.4563034495  SYS             27   0.00000
       959        27  MOL       C23            10.0179106182       16.6656407668       19.7076532959  SYS             27   0.00000
       960        27  MOL       H24             8.1335492685       17.4033282391       20.1546599827  SYS             27   0.00000
       961        27  MOL       H25            11.7781950903       16.1414334413       18.9148489836  SYS             27   0.00000
       962        27  MOL       H26            14.2097487202       18.1343616685       12.1900691428  SYS             27   0.00000
       963        27  MOL       C27            13.1998137659       19.2612734140       10.8448320384  SYS             27   0.00000
       964        27  MOL       C28            11.7973199024       20.6454427818        9.3646495191  SYS             27   0.00000
       965        27  MOL       H29            10.1563240885       16.2205548765       20.5355996434  SYS             27   0.00000
       966        27  MOL       C30            14.1840442382       19.2444260185        9.8074391616  SYS             27   0.00000
       967        27  MOL       C31            12.7549867506       20.6024097923        8.4059748010  SYS             27   0.00000
       968        27  MOL       H32            10.9947022786       21.1266171178        9.1987791133  SYS             27   0.00000
       969        27  MOL       C33            13.9728442992       19.8879625464        8.6351008700  SYS             27   0.00000
       970        27  MOL       H34            14.9987450496       18.7755668241        9.9437902579  SYS             27   0.00000
       971        27  MOL       H35            12.6165732804       21.0474956825        7.5780284535  SYS             27   0.00000
       972        27  MOL       H36            14.6393481004       19.8647223199        7.9589681142  SYS             27   0.00000
       973        28  MOL       C1             10.8630736751       21.9379518727       29.1060391687  SYS             28   0.00000
       974        28  MOL       C2              9.8787105043       21.9428607893       30.1251581872  SYS             28   0.00000
       975        28  MOL       C3             12.1071705586       21.2088028010       29.3379766005  SYS             28   0.00000
       976        28  MOL       C4             10.6924885896       22.6180571626       27.8929361164  SYS             28   0.00000
       977        28  MOL       C5             10.0743450322       21.2836099981       31.3256101070  SYS             28   0.00000
       978        28  MOL       H6              9.0644100779       22.4105217436       29.9803730025  SYS             28   0.00000
       979        28  MOL       C7             12.2776027351       20.5320868370       30.5623251042  SYS             28   0.00000
       980        28  MOL       C8             13.0829316377       21.2036591025       28.3343200775  SYS             28   0.00000
       981        28  MOL       C9             11.6682496687       22.6129134641       26.8892795933  SYS             28   0.00000
       982        28  MOL       H10             9.8788366485       23.0905306691       27.7622077457  SYS             28   0.00000
       983        28  MOL       C11             9.0901145599       21.3004573936       32.3630029838  SYS             28   0.00000
       984        28  MOL       C12            11.3050246461       20.5592930702       31.5519248132  SYS             28   0.00000
       985        28  MOL       H13            13.0787971200       20.0445642297       30.7141386959  SYS             28   0.00000
       986        28  MOL       H14            13.8965835789       20.7311855960       28.4650484481  SYS             28   0.00000
       987        28  MOL       C15            12.9123465523       21.8837643924       27.1212170251  SYS             28   0.00000
       988        28  MOL       C16            11.4978174922       23.2896294281       25.6649310897  SYS             28   0.00000
       989        28  MOL       C17             9.3013144989       20.6569208656       33.5353412754  SYS             28   0.00000
       990        28  MOL       H18             8.2754137485       21.7693165880       32.2266518875  SYS             28   0.00000
       991        28  MOL       C19            11.4768388957       19.8994406303       32.8057926263  SYS             28   0.00000
       992        28  MOL       C20            13.8967097231       21.8788554758       26.1020980066  SYS             28   0.00000
       993        28  MOL       C21            12.4703955813       23.2624231949       24.6753313807  SYS             28   0.00000
       994        28  MOL       H22            10.6966231074       23.7771520354       25.5131174979  SYS             28   0.00000
       995        28  MOL       C23            10.5191720475       19.9424736198       33.7644673444  SYS             28   0.00000
       996        28  MOL       H24             8.6348106977       20.6801610921       34.2114740311  SYS             28   0.00000
       997        28  MOL       H25            12.2794565195       19.4182662943       32.9716630321  SYS             28   0.00000
       998        28  MOL       H26            14.7110101494       21.4111945215       26.2468831913  SYS             28   0.00000
       999        28  MOL       C27            13.7010751952       22.5381062671       24.9016460868  SYS             28   0.00000
      1000        28  MOL       C28            12.2985813316       23.9222756348       23.4214635675  SYS             28   0.00000
      1001        28  MOL       H29            10.6575855177       19.4973877295       34.5924136918  SYS             28   0.00000
      1002        28  MOL       C30            14.6853056675       22.5212588715       23.8642532101  SYS             28   0.00000
      1003        28  MOL       C31            13.2562481799       23.8792426453       22.4627888494  SYS             28   0.00000
      1004        28  MOL       H32            11.4959637078       24.4034499708       23.2555931618  SYS             28   0.00000
      1005        28  MOL       C33            14.4741057284       23.1647953995       22.6919149184  SYS             28   0.00000
      1006        28  MOL       H34            15.5000064788       22.0523996771       24.0006043063  SYS             28   0.00000
      1007        28  MOL       H35            13.1178347096       24.3243285356       21.6348425020  SYS             28   0.00000
      1008        28  MOL       H36            15.1406095296       23.1415551730       22.0157821627  SYS             28   0.00000
      1009        29  MOL       C1             11.6749664954       10.9283353261       13.0644029766  SYS             29   0.00000
      1010        29  MOL       C2             12.6593296662       10.9234264095       12.0452839581  SYS             29   0.00000
      1011        29  MOL       C3             10.4308696119       11.6574843978       12.8324655448  SYS             29   0.00000
      1012        29  MOL       C4             11.8455515809       10.2482300362       14.2775060290  SYS             29   0.00000
      1013        29  MOL       C5             12.4636951383       11.5826772008       10.8448320384  SYS             29   0.00000
      1014        29  MOL       H6             13.4736300926       10.4557654552       12.1900691428  SYS             29   0.00000
      1015        29  MOL       C7             10.2604374354       12.3342003618       11.6081170412  SYS             29   0.00000
      1016        29  MOL       C8              9.4551085328       11.6626280964       13.8361220679  SYS             29   0.00000
      1017        29  MOL       C9             10.8697905018       10.2533737348       15.2811625521  SYS             29   0.00000
      1018        29  MOL       H10            12.6592035221        9.7757565298       14.4082343997  SYS             29   0.00000
      1019        29  MOL       C11            13.4479256106       11.5658298053        9.8074391616  SYS             29   0.00000
      1020        29  MOL       C12            11.2330155244       12.3069941286       10.6185173322  SYS             29   0.00000
      1021        29  MOL       H13             9.4592430505       12.8217229691       11.4563034495  SYS             29   0.00000
      1022        29  MOL       H14             8.6414565916       12.1351016028       13.7053936972  SYS             29   0.00000
      1023        29  MOL       C15             9.6256936182       10.9825228064       15.0492251203  SYS             29   0.00000
      1024        29  MOL       C16            11.0402226783        9.5766577707       16.5055110557  SYS             29   0.00000
      1025        29  MOL       C17            13.2367256716       12.2093663332        8.6351008700  SYS             29   0.00000
      1026        29  MOL       H18            14.2626264220       11.0969706108        9.9437902579  SYS             29   0.00000
      1027        29  MOL       C19            11.0612012748       12.9668465686        9.3646495191  SYS             29   0.00000
      1028        29  MOL       C20             8.6413304474       10.9874317230       16.0683441388  SYS             29   0.00000
      1029        29  MOL       C21            10.0676445892        9.6038640039       17.4951107647  SYS             29   0.00000
      1030        29  MOL       H22            11.8414170632        9.0891351634       16.6573246474  SYS             29   0.00000
      1031        29  MOL       C23            12.0188681230       12.9238135790        8.4059748010  SYS             29   0.00000
      1032        29  MOL       H24            13.9032294728       12.1861261067        7.9589681142  SYS             29   0.00000
      1033        29  MOL       H25            10.2585836510       13.4480209045        9.1987791133  SYS             29   0.00000
      1034        29  MOL       H26             7.8270300211       11.4550926774       15.9235589541  SYS             29   0.00000
      1035        29  MOL       C27             8.8369649753       10.3281809318       17.2687960585  SYS             29   0.00000
      1036        29  MOL       C28            10.2394588389        8.9440115640       18.7489785778  SYS             29   0.00000
      1037        29  MOL       H29            11.8804546528       13.3688994693        7.5780284535  SYS             29   0.00000
      1038        29  MOL       C30             7.8527345030       10.3450283273       18.3061889353  SYS             29   0.00000
      1039        29  MOL       C31             9.2817919906        8.9870445535       19.7076532959  SYS             29   0.00000
      1040        29  MOL       H32            11.0420764627        8.4628372280       18.9148489836  SYS             29   0.00000
      1041        29  MOL       C33             8.0639344421        9.7014917994       19.4785272269  SYS             29   0.00000
      1042        29  MOL       H34             7.0380336917       10.8138875217       18.1698378390  SYS             29   0.00000
      1043        29  MOL       H35             9.4202054609        8.5419586633       20.5355996434  SYS             29   0.00000
      1044        29  MOL       H36             7.3974306409        9.7247320259       20.1546599827  SYS             29   0.00000
      1045        30  MOL       C1              9.1244321890        7.7056899534        0.9924110718  SYS             30   0.00000
      1046        30  MOL       C2              8.1400690182        7.7105988700        2.0115300903  SYS             30   0.00000
      1047        30  MOL       C3             10.3685290726        6.9765408817        1.2243485036  SYS             30   0.00000
      1048        30  MOL       C4              8.9538471036        8.3857952433       -0.2206919806  SYS             30   0.00000
      1049        30  MOL       C5              8.3357035461        7.0513480788        3.2119820101  SYS             30   0.00000
      1050        30  MOL       H6              7.3257685919        8.1782598243        1.8667449056  SYS             30   0.00000
      1051        30  MOL       C7             10.5389612490        6.2998249177        2.4486970072  SYS             30   0.00000
      1052        30  MOL       C8             11.3442901516        6.9713971832        0.2206919806  SYS             30   0.00000
      1053        30  MOL       C9              9.9296081826        8.3806515448       -1.2243485036  SYS             30   0.00000
      1054        30  MOL       H10             8.1401951624        8.8582687498       -0.3514203512  SYS             30   0.00000
      1055        30  MOL       C11             7.3514730738        7.0681954743        4.2493748868  SYS             30   0.00000
      1056        30  MOL       C12             9.5663831600        6.3270311509        3.4382967163  SYS             30   0.00000
      1057        30  MOL       H13            11.3401556339        5.8123023104        2.6005105990  SYS             30   0.00000
      1058        30  MOL       H14            12.1579420928        6.4989236767        0.3514203512  SYS             30   0.00000
      1059        30  MOL       C15            11.1737050662        7.6515024731       -0.9924110718  SYS             30   0.00000
      1060        30  MOL       C16             9.7591760062        9.0573675088       -2.4486970072  SYS             30   0.00000
      1061        30  MOL       C17             7.5626730129        6.4246589463        5.4217131785  SYS             30   0.00000
      1062        30  MOL       H18             6.5367722625        7.5370546687        4.1130237906  SYS             30   0.00000
      1063        30  MOL       C19             9.7381974097        5.6671787110        4.6921645294  SYS             30   0.00000
      1064        30  MOL       C20            12.1580682370        7.6465935565       -2.0115300903  SYS             30   0.00000
      1065        30  MOL       C21            10.7317540952        9.0301612756       -3.4382967163  SYS             30   0.00000
      1066        30  MOL       H22             8.9579816213        9.5448901161       -2.6005105990  SYS             30   0.00000
      1067        30  MOL       C23             8.7805305614        5.7102117005        5.6508392475  SYS             30   0.00000
      1068        30  MOL       H24             6.8961692116        6.4478991728        6.0978459342  SYS             30   0.00000
      1069        30  MOL       H25            10.5408150335        5.1860043750        4.8580349351  SYS             30   0.00000
      1070        30  MOL       H26            12.9723686633        7.1789326022       -1.8667449056  SYS             30   0.00000
      1071        30  MOL       C27            11.9624337091        8.3058443477       -3.2119820101  SYS             30   0.00000
      1072        30  MOL       C28            10.5599398455        9.6900137155       -4.6921645294  SYS             30   0.00000
      1073        30  MOL       H29             8.9189440316        5.2651258102        6.4787855949  SYS             30   0.00000
      1074        30  MOL       C30            12.9466641814        8.2889969522       -4.2493748868  SYS             30   0.00000
      1075        30  MOL       C31            11.5176066938        9.6469807260       -5.6508392475  SYS             30   0.00000
      1076        30  MOL       H32             9.7573222218       10.1711880515       -4.8580349351  SYS             30   0.00000
      1077        30  MOL       C33            12.7354642423        8.9325334802       -5.4217131785  SYS             30   0.00000
      1078        30  MOL       H34            13.7613649927        7.8201377578       -4.1130237906  SYS             30   0.00000
      1079        30  MOL       H35            11.3791932236       10.0920666163       -6.4787855949  SYS             30   0.00000
      1080        30  MOL       H36            13.4019680436        8.9092932537       -6.0978459342  SYS             30   0.00000
      1081        31  MOL       C1             10.5966694442       23.0628823799        0.9924110718  SYS             31   0.00000
      1082        31  MOL       C2              9.6123062734       23.0677912965        2.0115300903  SYS             31   0.00000
      1083        31  MOL       C3             11.8407663278       22.3337333082        1.2243485036  SYS             31   0.00000
      1084        31  MOL       C4             10.4260843588       23.7429876698       -0.2206919806  SYS             31   0.00000
      1085        31  MOL       C5              9.8079408013       22.4085405052        3.2119820101  SYS             31   0.00000
      1086        31  MOL       H6              8.7980058471       23.5354522508        1.8667449056  SYS             31   0.00000
      1087        31  MOL       C7             12.0111985042       21.6570173442        2.4486970072  SYS             31   0.00000
      1088        31  MOL       C8             12.8165274068       22.3285896097        0.2206919806  SYS             31   0.00000
      1089        31  MOL       C9             11.4018454378       23.7378439713       -1.2243485036  SYS             31   0.00000
      1090        31  MOL       H10             9.6124324176       24.2154611763       -0.3514203512  SYS             31   0.00000
      1091        31  MOL       C11             8.8237103290       22.4253879008        4.2493748868  SYS             31   0.00000
      1092        31  MOL       C12            11.0386204152       21.6842235774        3.4382967163  SYS             31   0.00000
      1093        31  MOL       H13            12.8123928891       21.1694947369        2.6005105990  SYS             31   0.00000
      1094        31  MOL       H14            13.6301793480       21.8561161032        0.3514203512  SYS             31   0.00000
      1095        31  MOL       C15            12.6459423214       23.0086948996       -0.9924110718  SYS             31   0.00000
      1096        31  MOL       C16            11.2314132614       24.4145599353       -2.4486970072  SYS             31   0.00000
      1097        31  MOL       C17             9.0349102681       21.7818513728        5.4217131785  SYS             31   0.00000
      1098        31  MOL       H18             8.0090095177       22.8942470952        4.1130237906  SYS             31   0.00000
      1099        31  MOL       C19            11.2104346649       21.0243711374        4.6921645294  SYS             31   0.00000
      1100        31  MOL       C20            13.6303054922       23.0037859830       -2.0115300903  SYS             31   0.00000
      1101        31  MOL       C21            12.2039913504       24.3873537021       -3.4382967163  SYS             31   0.00000
      1102        31  MOL       H22            10.4302188765       24.9020825426       -2.6005105990  SYS             31   0.00000
      1103        31  MOL       C23            10.2527678166       21.0674041270        5.6508392475  SYS             31   0.00000
      1104        31  MOL       H24             8.3684064668       21.8050915993        6.0978459342  SYS             31   0.00000
      1105        31  MOL       H25            12.0130522887       20.5431968015        4.8580349351  SYS             31   0.00000
      1106        31  MOL       H26            14.4446059185       22.5361250287       -1.8667449056  SYS             31   0.00000
      1107        31  MOL       C27            13.4346709643       23.6630367742       -3.2119820101  SYS             31   0.00000
      1108        31  MOL       C28            12.0321771007       25.0472061420       -4.6921645294  SYS             31   0.00000
      1109        31  MOL       H29            10.3911812868       20.6223182367        6.4787855949  SYS             31   0.00000
      1110        31  MOL       C30            14.4189014366       23.6461893787       -4.2493748868  SYS             31   0.00000
      1111        31  MOL       C31            12.9898439490       25.0041731525       -5.6508392475  SYS             31   0.00000
      1112        31  MOL       H32            11.2295594770       25.5283804780       -4.8580349351  SYS             31   0.00000
      1113        31  MOL       C33            14.2077014975       24.2897259067       -5.4217131785  SYS             31   0.00000
      1114        31  MOL       H34            15.2336022480       23.1773301843       -4.1130237906  SYS             31   0.00000
      1115        31  MOL       H35            12.8514304788       25.4492590427       -6.4787855949  SYS             31   0.00000
      1116        31  MOL       H36            14.8742052988       24.2664856802       -6.0978459342  SYS             31   0.00000
      1117        32  MOL       C1              1.0904062681       17.4979334873       28.9204892233  SYS             32   0.00000
      1118        32  MOL       C2              0.0984920875       16.9263659498       29.7526526150  SYS             32   0.00000
      1119        32  MOL       C3              2.3212242915       17.9859098489       29.5249322274  SYS             32   0.00000
      1120        32  MOL       C4              0.9110245770       17.5999043150       27.5330816767  SYS             32   0.00000
      1121        32  MOL       C5              0.2771631726       16.8252852707       31.1274090289  SYS             32   0.00000
      1122        32  MOL       H6             -0.7068281929       16.6052397934       29.3632788658  SYS             32   0.00000
      1123        32  MOL       C7              2.4776536563       17.8664934402       30.9165568182  SYS             32   0.00000
      1124        32  MOL       C8              3.3023770228       18.5432157369       28.6941745171  SYS             32   0.00000
      1125        32  MOL       C9              1.8921773083       18.1572102030       26.7023239664  SYS             32   0.00000
      1126        32  MOL       H10             0.0975203903       17.2827103580       27.1605761044  SYS             32   0.00000
      1127        32  MOL       C11            -0.7188470150       16.2394266960       31.9904974115  SYS             32   0.00000
      1128        32  MOL       C12             1.5017298854       17.3012008644       31.7262293074  SYS             32   0.00000
      1129        32  MOL       H13             3.2790208710       18.1840981859       31.3171760186  SYS             32   0.00000
      1130        32  MOL       H14             4.1158812095       18.8604096939       29.0666800894  SYS             32   0.00000
      1131        32  MOL       C15             3.1229953317       18.6451865645       27.3067669705  SYS             32   0.00000
      1132        32  MOL       C16             1.7357479434       18.2766266117       25.3106993756  SYS             32   0.00000
      1133        32  MOL       C17            -0.5208746302       16.1422244985       33.3258947461  SYS             32   0.00000
      1134        32  MOL       H18            -1.5286476389       15.9154344955       31.6151804764  SYS             32   0.00000
      1135        32  MOL       C19             1.6655409837       17.1759398744       33.1487788891  SYS             32   0.00000
      1136        32  MOL       C20             4.1149095123       19.2167541021       26.4746035789  SYS             32   0.00000
      1137        32  MOL       C21             2.7116717144       18.8419191875       24.5010268865  SYS             32   0.00000
      1138        32  MOL       H22             0.9343807288       17.9590218659       24.9100801753  SYS             32   0.00000
      1139        32  MOL       C23             0.6865769354       16.6248454344       33.9106582105  SYS             32   0.00000
      1140        32  MOL       H24            -1.1893085494       15.7505076994       33.8755161754  SYS             32   0.00000
      1141        32  MOL       H25             2.4653566640       17.4823446133       33.5606435407  SYS             32   0.00000
      1142        32  MOL       H26             4.9202297927       19.5378802585       26.8639773280  SYS             32   0.00000
      1143        32  MOL       C27             3.9362384271       19.3178347812       25.0998471649  SYS             32   0.00000
      1144        32  MOL       C28             2.5478606161       18.9671801774       23.0784773048  SYS             32   0.00000
      1145        32  MOL       H29             0.8077129258       16.5599574924       34.8510590703  SYS             32   0.00000
      1146        32  MOL       C30             4.9322486147       19.9036933558       24.2367587823  SYS             32   0.00000
      1147        32  MOL       C31             3.5268246644       19.5182746174       22.3165979833  SYS             32   0.00000
      1148        32  MOL       H32             1.7480449358       18.6607754386       22.6666126531  SYS             32   0.00000
      1149        32  MOL       C33             4.7342762299       20.0008955534       22.9013614477  SYS             32   0.00000
      1150        32  MOL       H34             5.7420492386       20.2276855564       24.6120757174  SYS             32   0.00000
      1151        32  MOL       H35             3.4056886740       19.5831625595       21.3761971235  SYS             32   0.00000
      1152        32  MOL       H36             5.4027101491       20.3926123524       22.3517400184  SYS             32   0.00000
      1153        33  MOL       C1             13.1472037506       26.2855277526       13.0644029766  SYS             33   0.00000
      1154        33  MOL       C2             14.1315669214       26.2806188360       12.0452839581  SYS             33   0.00000
      1155        33  MOL       C3             11.9031068671       27.0146768243       12.8324655448  SYS             33   0.00000
      1156        33  MOL       C4             13.3177888361       25.6054224627       14.2775060290  SYS             33   0.00000
      1157        33  MOL       C5             13.9359323935       26.9398696273       10.8448320384  SYS             33   0.00000
      1158        33  MOL       H6             14.9458673478       25.8129578817       12.1900691428  SYS             33   0.00000
      1159        33  MOL       C7             11.7326746906       27.6913927883       11.6081170412  SYS             33   0.00000
      1160        33  MOL       C8             10.9273457880       27.0198205228       13.8361220679  SYS             33   0.00000
      1161        33  MOL       C9             12.3420277570       25.6105661612       15.2811625521  SYS             33   0.00000
      1162        33  MOL       H10            14.1314407773       25.1329489563       14.4082343997  SYS             33   0.00000
      1163        33  MOL       C11            14.9201628658       26.9230222318        9.8074391616  SYS             33   0.00000
      1164        33  MOL       C12            12.7052527796       27.6641865551       10.6185173322  SYS             33   0.00000
      1165        33  MOL       H13            10.9314803057       28.1789153956       11.4563034495  SYS             33   0.00000
      1166        33  MOL       H14            10.1136938468       27.4922940293       13.7053936972  SYS             33   0.00000
      1167        33  MOL       C15            11.0979308735       26.3397152329       15.0492251203  SYS             33   0.00000
      1168        33  MOL       C16            12.5124599335       24.9338501972       16.5055110557  SYS             33   0.00000
      1169        33  MOL       C17            14.7089629268       27.5665587597        8.6351008700  SYS             33   0.00000
      1170        33  MOL       H18            15.7348636772       26.4541630373        9.9437902579  SYS             33   0.00000
      1171        33  MOL       C19            12.5334385300       28.3240389951        9.3646495191  SYS             33   0.00000
      1172        33  MOL       C20            10.1135677027       26.3446241495       16.0683441388  SYS             33   0.00000
      1173        33  MOL       C21            11.5398818445       24.9610564304       17.4951107647  SYS             33   0.00000
      1174        33  MOL       H22            13.3136543184       24.4463275899       16.6573246474  SYS             33   0.00000
      1175        33  MOL       C23            13.4911053782       28.2810060055        8.4059748010  SYS             33   0.00000
      1176        33  MOL       H24            15.3754667280       27.5433185332        7.9589681142  SYS             33   0.00000
      1177        33  MOL       H25            11.7308209062       28.8052133310        9.1987791133  SYS             33   0.00000
      1178        33  MOL       H26             9.2992672763       26.8122851038       15.9235589541  SYS             33   0.00000
      1179        33  MOL       C27            10.3092022306       25.6853733583       17.2687960585  SYS             33   0.00000
      1180        33  MOL       C28            11.7116960941       24.3012039905       18.7489785778  SYS             33   0.00000
      1181        33  MOL       H29            13.3526919080       28.7260918958        7.5780284535  SYS             33   0.00000
      1182        33  MOL       C30             9.3249717582       25.7022207538       18.3061889353  SYS             33   0.00000
      1183        33  MOL       C31            10.7540292458       24.3442369800       19.7076532959  SYS             33   0.00000
      1184        33  MOL       H32            12.5143137179       23.8200296545       18.9148489836  SYS             33   0.00000
      1185        33  MOL       C33             9.5361716973       25.0586842259       19.4785272269  SYS             33   0.00000
      1186        33  MOL       H34             8.5102709469       26.1710799482       18.1698378390  SYS             33   0.00000
      1187        33  MOL       H35            10.8924427161       23.8991510898       20.5355996434  SYS             33   0.00000
      1188        33  MOL       H36             8.8696678961       25.0819244524       20.1546599827  SYS             33   0.00000
      1189        34  MOL       C1              9.8605508166       15.3842861666        0.9924110718  SYS             34   0.00000
      1190        34  MOL       C2              8.8761876458       15.3891950832        2.0115300903  SYS             34   0.00000
      1191        34  MOL       C3             11.1046477002       14.6551370950        1.2243485036  SYS             34   0.00000
      1192        34  MOL       C4              9.6899657312       16.0643914566       -0.2206919806  SYS             34   0.00000
      1193        34  MOL       C5              9.0718221737       14.7299442920        3.2119820101  SYS             34   0.00000
      1194        34  MOL       H6              8.0618872195       15.8568560376        1.8667449056  SYS             34   0.00000
      1195        34  MOL       C7             11.2750798766       13.9784211309        2.4486970072  SYS             34   0.00000
      1196        34  MOL       C8             12.0804087792       14.6499933964        0.2206919806  SYS             34   0.00000
      1197        34  MOL       C9             10.6657268102       16.0592477580       -1.2243485036  SYS             34   0.00000
      1198        34  MOL       H10             8.8763137900       16.5368649630       -0.3514203512  SYS             34   0.00000
      1199        34  MOL       C11             8.0875917014       14.7467916875        4.2493748868  SYS             34   0.00000
      1200        34  MOL       C12            10.3025017876       14.0056273642        3.4382967163  SYS             34   0.00000
      1201        34  MOL       H13            12.0762742615       13.4908985236        2.6005105990  SYS             34   0.00000
      1202        34  MOL       H14            12.8940607204       14.1775198900        0.3514203512  SYS             34   0.00000
      1203        34  MOL       C15            11.9098236938       15.3300986863       -0.9924110718  SYS             34   0.00000
      1204        34  MOL       C16            10.4952946338       16.7359637220       -2.4486970072  SYS             34   0.00000
      1205        34  MOL       C17             8.2987916405       14.1032551596        5.4217131785  SYS             34   0.00000
      1206        34  MOL       H18             7.2728908901       15.2156508819        4.1130237906  SYS             34   0.00000
      1207        34  MOL       C19            10.4743160373       13.3457749242        4.6921645294  SYS             34   0.00000
      1208        34  MOL       C20            12.8941868646       15.3251897698       -2.0115300903  SYS             34   0.00000
      1209        34  MOL       C21            11.4678727228       16.7087574888       -3.4382967163  SYS             34   0.00000
      1210        34  MOL       H22             9.6941002489       17.2234863293       -2.6005105990  SYS             34   0.00000
      1211        34  MOL       C23             9.5166491890       13.3888079138        5.6508392475  SYS             34   0.00000
      1212        34  MOL       H24             7.6322878392       14.1264953861        6.0978459342  SYS             34   0.00000
      1213        34  MOL       H25            11.2769336611       12.8646005882        4.8580349351  SYS             34   0.00000
      1214        34  MOL       H26            13.7084872909       14.8575288154       -1.8667449056  SYS             34   0.00000
      1215        34  MOL       C27            12.6985523367       15.9844405610       -3.2119820101  SYS             34   0.00000
      1216        34  MOL       C28            11.2960584731       17.3686099288       -4.6921645294  SYS             34   0.00000
      1217        34  MOL       H29             9.6550626592       12.9437220235        6.4787855949  SYS             34   0.00000
      1218        34  MOL       C30            13.6827828090       15.9675931655       -4.2493748868  SYS             34   0.00000
      1219        34  MOL       C31            12.2537253214       17.3255769392       -5.6508392475  SYS             34   0.00000
      1220        34  MOL       H32            10.4934408494       17.8497842648       -4.8580349351  SYS             34   0.00000
      1221        34  MOL       C33            13.4715828699       16.6111296934       -5.4217131785  SYS             34   0.00000
      1222        34  MOL       H34            14.4974836203       15.4987339711       -4.1130237906  SYS             34   0.00000
      1223        34  MOL       H35            12.1153118512       17.7706628295       -6.4787855949  SYS             34   0.00000
      1224        34  MOL       H36            14.1380866712       16.5878894669       -6.0978459342  SYS             34   0.00000
      1225        35  MOL       C1              1.3252634664       21.8996968476       14.8636751748  SYS             35   0.00000
      1226        35  MOL       C2              0.3333492859       21.3281293100       15.6958385665  SYS             35   0.00000
      1227        35  MOL       C3              2.5560814898       22.3876732091       15.4681181789  SYS             35   0.00000
      1228        35  MOL       C4              1.1458817753       22.0016676752       13.4762676283  SYS             35   0.00000
      1229        35  MOL       C5              0.5120203710       21.2270486309       17.0705949804  SYS             35   0.00000
      1230        35  MOL       H6             -0.4719709946       21.0070031536       15.3064648174  SYS             35   0.00000
      1231        35  MOL       C7              2.7125108547       22.2682568004       16.8597427697  SYS             35   0.00000
      1232        35  MOL       C8              3.5372342212       22.9449790971       14.6373604687  SYS             35   0.00000
      1233        35  MOL       C9              2.1270345066       22.5589735632       12.6455099180  SYS             35   0.00000
      1234        35  MOL       H10             0.3323775886       21.6844737182       13.1037620560  SYS             35   0.00000
      1235        35  MOL       C11            -0.4839898166       20.6411900562       17.9336833630  SYS             35   0.00000
      1236        35  MOL       C12             1.7365870838       21.7029642246       17.6694152589  SYS             35   0.00000
      1237        35  MOL       H13             3.5138780693       22.5858615461       17.2603619701  SYS             35   0.00000
      1238        35  MOL       H14             4.3507384079       23.2621730541       15.0098660409  SYS             35   0.00000
      1239        35  MOL       C15             3.3578525301       23.0469499247       13.2499529221  SYS             35   0.00000
      1240        35  MOL       C16             1.9706051418       22.6783899719       11.2538853272  SYS             35   0.00000
      1241        35  MOL       C17            -0.2860174318       20.5439878587       19.2690806976  SYS             35   0.00000
      1242        35  MOL       H18            -1.2937904405       20.3171978557       17.5583664279  SYS             35   0.00000
      1243        35  MOL       C19             1.9003981821       21.5777032346       19.0919648406  SYS             35   0.00000
      1244        35  MOL       C20             4.3497667106       23.6185174623       12.4177895304  SYS             35   0.00000
      1245        35  MOL       C21             2.9465289127       23.2436825477       10.4442128380  SYS             35   0.00000
      1246        35  MOL       H22             1.1692379272       22.3607852262       10.8532661268  SYS             35   0.00000
      1247        35  MOL       C23             0.9214341338       21.0266087946       19.8538441620  SYS             35   0.00000
      1248        35  MOL       H24            -0.9544513510       20.1522710596       19.8187021269  SYS             35   0.00000
      1249        35  MOL       H25             2.7002138623       21.8841079735       19.5038294922  SYS             35   0.00000
      1250        35  MOL       H26             5.1550869910       23.9396436187       12.8071632795  SYS             35   0.00000
      1251        35  MOL       C27             4.1710956255       23.7195981414       11.0430331165  SYS             35   0.00000
      1252        35  MOL       C28             2.7827178144       23.3689435377        9.0216632563  SYS             35   0.00000
      1253        35  MOL       H29             1.0425701242       20.9617208526       20.7942450219  SYS             35   0.00000
      1254        35  MOL       C30             5.1671058131       24.3054567161       10.1799447339  SYS             35   0.00000
      1255        35  MOL       C31             3.7616818627       23.9200379777        8.2597839349  SYS             35   0.00000
      1256        35  MOL       H32             1.9829021342       23.0625387988        8.6097986047  SYS             35   0.00000
      1257        35  MOL       C33             4.9691334283       24.4026589136        8.8445473993  SYS             35   0.00000
      1258        35  MOL       H34             5.9769064370       24.6294489166       10.5552616690  SYS             35   0.00000
      1259        35  MOL       H35             3.6405458723       23.9849259197        7.3193830750  SYS             35   0.00000
      1260        35  MOL       H36             5.6375673475       24.7943757127        8.2949259700  SYS             35   0.00000
      1261        36  MOL       C1              1.8265248957       25.1765297006       28.9204892233  SYS             36   0.00000
      1262        36  MOL       C2              0.8346107151       24.6049621630       29.7526526150  SYS             36   0.00000
      1263        36  MOL       C3              3.0573429191       25.6645060621       29.5249322274  SYS             36   0.00000
      1264        36  MOL       C4              1.6471432046       25.2785005282       27.5330816767  SYS             36   0.00000
      1265        36  MOL       C5              1.0132818002       24.5038814839       31.1274090289  SYS             36   0.00000
      1266        36  MOL       H6              0.0292904347       24.2838360066       29.3632788658  SYS             36   0.00000
      1267        36  MOL       C7              3.2137722839       25.5450896534       30.9165568182  SYS             36   0.00000
      1268        36  MOL       C8              4.0384956504       26.2218119501       28.6941745171  SYS             36   0.00000
      1269        36  MOL       C9              2.6282959359       25.8358064162       26.7023239664  SYS             36   0.00000
      1270        36  MOL       H10             0.8336390179       24.9613065712       27.1605761044  SYS             36   0.00000
      1271        36  MOL       C11             0.0172716126       23.9180229093       31.9904974115  SYS             36   0.00000
      1272        36  MOL       C12             2.2378485130       24.9797970776       31.7262293074  SYS             36   0.00000
      1273        36  MOL       H13             4.0151394986       25.8626943992       31.3171760186  SYS             36   0.00000
      1274        36  MOL       H14             4.8519998371       26.5390059072       29.0666800894  SYS             36   0.00000
      1275        36  MOL       C15             3.8591139593       26.3237827778       27.3067669705  SYS             36   0.00000
      1276        36  MOL       C16             2.4718665711       25.9552228249       25.3106993756  SYS             36   0.00000
      1277        36  MOL       C17             0.2152439974       23.8208207118       33.3258947461  SYS             36   0.00000
      1278        36  MOL       H18            -0.7925290112       23.5940307087       31.6151804764  SYS             36   0.00000
      1279        36  MOL       C19             2.4016596113       24.8545360877       33.1487788891  SYS             36   0.00000
      1280        36  MOL       C20             4.8510281399       26.8953503153       26.4746035789  SYS             36   0.00000
      1281        36  MOL       C21             3.4477903420       26.5205154007       24.5010268865  SYS             36   0.00000
      1282        36  MOL       H22             1.6704993564       25.6376180792       24.9100801753  SYS             36   0.00000
      1283        36  MOL       C23             1.4226955630       24.3034416477       33.9106582105  SYS             36   0.00000
      1284        36  MOL       H24            -0.4531899218       23.4291039127       33.8755161754  SYS             36   0.00000
      1285        36  MOL       H25             3.2014752916       25.1609408265       33.5606435407  SYS             36   0.00000
      1286        36  MOL       H26             5.6563484203       27.2164764718       26.8639773280  SYS             36   0.00000
      1287        36  MOL       C27             4.6723570547       26.9964309944       25.0998471649  SYS             36   0.00000
      1288        36  MOL       C28             3.2839792437       26.6457763907       23.0784773048  SYS             36   0.00000
      1289        36  MOL       H29             1.5438315534       24.2385537056       34.8510590703  SYS             36   0.00000
      1290        36  MOL       C30             5.6683672423       27.5822895691       24.2367587823  SYS             36   0.00000
      1291        36  MOL       C31             4.2629432920       27.1968708307       22.3165979833  SYS             36   0.00000
      1292        36  MOL       H32             2.4841635634       26.3393716519       22.6666126531  SYS             36   0.00000
      1293        36  MOL       C33             5.4703948575       27.6794917666       22.9013614477  SYS             36   0.00000
      1294        36  MOL       H34             6.4781678662       27.9062817696       24.6120757174  SYS             36   0.00000
      1295        36  MOL       H35             4.1418073016       27.2617587727       21.3761971235  SYS             36   0.00000
      1296        36  MOL       H36             6.1388287767       28.0712085657       22.3517400184  SYS             36   0.00000
      1297        37  MOL       C1             12.9048876404        9.8193372741       28.9204892233  SYS             37   0.00000
      1298        37  MOL       C2             11.9129734599        9.2477697365       29.7526526150  SYS             37   0.00000
      1299        37  MOL       C3             14.1357056639       10.3073136356       29.5249322274  SYS             37   0.00000
      1300        37  MOL       C4             12.7255059494        9.9213081017       27.5330816767  SYS             37   0.00000
      1301        37  MOL       C5             12.0916445450        9.1466890575       31.1274090289  SYS             37   0.00000
      1302        37  MOL       H6             11.1076531795        8.9266435801       29.3632788658  SYS             37   0.00000
      1303        37  MOL       C7             14.2921350287       10.1878972269       30.9165568182  SYS             37   0.00000
      1304        37  MOL       C8             15.1168583952       10.8646195237       28.6941745171  SYS             37   0.00000
      1305        37  MOL       C9             13.7066586807       10.4786139898       26.7023239664  SYS             37   0.00000
      1306        37  MOL       H10            11.9120017626        9.6041141447       27.1605761044  SYS             37   0.00000
      1307        37  MOL       C11            11.0956343574        8.5608304828       31.9904974115  SYS             37   0.00000
      1308        37  MOL       C12            13.3162112578        9.6226046511       31.7262293074  SYS             37   0.00000
      1309        37  MOL       H13            15.0935022433       10.5055019727       31.3171760186  SYS             37   0.00000
      1310        37  MOL       H14            15.9303625819       11.1818134807       29.0666800894  SYS             37   0.00000
      1311        37  MOL       C15            14.9374767041       10.9665903513       27.3067669705  SYS             37   0.00000
      1312        37  MOL       C16            13.5502293158       10.5980303984       25.3106993756  SYS             37   0.00000
      1313        37  MOL       C17            11.2936067422        8.4636282853       33.3258947461  SYS             37   0.00000
      1314        37  MOL       H18            10.2858337335        8.2368382822       31.6151804764  SYS             37   0.00000
      1315        37  MOL       C19            13.4800223561        9.4973436612       33.1487788891  SYS             37   0.00000
      1316        37  MOL       C20            15.9293908846       11.5381578888       26.4746035789  SYS             37   0.00000
      1317        37  MOL       C21            14.5261530868       11.1633229742       24.5010268865  SYS             37   0.00000
      1318        37  MOL       H22            12.7488621012       10.2804256527       24.9100801753  SYS             37   0.00000
      1319        37  MOL       C23            12.5010583078        8.9462492212       33.9106582105  SYS             37   0.00000
      1320        37  MOL       H24            10.6251728230        8.0719114862       33.8755161754  SYS             37   0.00000
      1321        37  MOL       H25            14.2798380364        9.8037484000       33.5606435407  SYS             37   0.00000
      1322        37  MOL       H26            16.7347111651       11.8592840453       26.8639773280  SYS             37   0.00000
      1323        37  MOL       C27            15.7507197995       11.6392385679       25.0998471649  SYS             37   0.00000
      1324        37  MOL       C28            14.3623419885       11.2885839642       23.0784773048  SYS             37   0.00000
      1325        37  MOL       H29            12.6221942982        8.8813612791       34.8510590703  SYS             37   0.00000
      1326        37  MOL       C30            16.7467299871       12.2250971426       24.2367587823  SYS             37   0.00000
      1327        37  MOL       C31            15.3413060368       11.8396784042       22.3165979833  SYS             37   0.00000
      1328        37  MOL       H32            13.5625263082       10.9821792254       22.6666126531  SYS             37   0.00000
      1329        37  MOL       C33            16.5487576023       12.3222993401       22.9013614477  SYS             37   0.00000
      1330        37  MOL       H34            17.5565306110       12.5490893431       24.6120757174  SYS             37   0.00000
      1331        37  MOL       H35            15.2201700464       11.9045663462       21.3761971235  SYS             37   0.00000
      1332        37  MOL       H36            17.2171915215       12.7140161392       22.3517400184  SYS             37   0.00000
      1333        38  MOL       C1             14.4362152749        7.6897574982       13.2499529221  SYS             38   0.00000
      1334        38  MOL       C2             15.4281294554        8.2613250358       12.4177895304  SYS             38   0.00000
      1335        38  MOL       C3             13.2053972514        7.2017811367       12.6455099180  SYS             38   0.00000
      1336        38  MOL       C4             14.6155969660        7.5877866706       14.6373604687  SYS             38   0.00000
      1337        38  MOL       C5             15.2494583703        8.3624057149       11.0430331165  SYS             38   0.00000
      1338        38  MOL       H6             16.2334497358        8.5824511922       12.8071632795  SYS             38   0.00000
      1339        38  MOL       C7             13.0489678866        7.3211975454       11.2538853272  SYS             38   0.00000
      1340        38  MOL       C8             12.2242445201        6.6444752487       13.4762676283  SYS             38   0.00000
      1341        38  MOL       C9             13.6344442346        7.0304807826       15.4681181789  SYS             38   0.00000
      1342        38  MOL       H10            15.4291011527        7.9049806276       15.0098660409  SYS             38   0.00000
      1343        38  MOL       C11            16.2454685579        8.9482642896       10.1799447339  SYS             38   0.00000
      1344        38  MOL       C12            14.0248916575        7.8864901212       10.4442128380  SYS             38   0.00000
      1345        38  MOL       H13            12.2476006720        7.0035927997       10.8532661268  SYS             38   0.00000
      1346        38  MOL       H14            11.4107403334        6.3272812917       13.1037620560  SYS             38   0.00000
      1347        38  MOL       C15            12.4036262112        6.5425044211       14.8636751748  SYS             38   0.00000
      1348        38  MOL       C16            13.7908735995        6.9110643739       16.8597427697  SYS             38   0.00000
      1349        38  MOL       C17            16.0474961731        9.0454664871        8.8445473993  SYS             38   0.00000
      1350        38  MOL       H18            17.0552691818        9.2722564901       10.5552616690  SYS             38   0.00000
      1351        38  MOL       C19            13.8610805592        8.0117511112        9.0216632563  SYS             38   0.00000
      1352        38  MOL       C20            11.4117120307        5.9709368835       15.6958385665  SYS             38   0.00000
      1353        38  MOL       C21            12.8149498286        6.3457717981       17.6694152589  SYS             38   0.00000
      1354        38  MOL       H22            14.5922408141        7.2286691196       17.2603619701  SYS             38   0.00000
      1355        38  MOL       C23            14.8400446075        8.5628455512        8.2597839349  SYS             38   0.00000
      1356        38  MOL       H24            16.7159300923        9.4371832862        8.2949259700  SYS             38   0.00000
      1357        38  MOL       H25            13.0612648789        7.7053463723        8.6097986047  SYS             38   0.00000
      1358        38  MOL       H26            10.6063917502        5.6498107271       15.3064648174  SYS             38   0.00000
      1359        38  MOL       C27            11.5903831158        5.8698562044       17.0705949804  SYS             38   0.00000
      1360        38  MOL       C28            12.9787609268        6.2205108081       19.0919648406  SYS             38   0.00000
      1361        38  MOL       H29            14.7189086171        8.6277334932        7.3193830750  SYS             38   0.00000
      1362        38  MOL       C30            10.5943729282        5.2839976297       17.9336833630  SYS             38   0.00000
      1363        38  MOL       C31            11.9997968786        5.6694163681       19.8538441620  SYS             38   0.00000
      1364        38  MOL       H32            13.7785766071        6.5269155470       19.5038294922  SYS             38   0.00000
      1365        38  MOL       C33            10.7923453130        5.1867954322       19.2690806976  SYS             38   0.00000
      1366        38  MOL       H34             9.7845723043        4.9600054292       17.5583664279  SYS             38   0.00000
      1367        38  MOL       H35            12.1209328689        5.6045284261       20.7942450219  SYS             38   0.00000
      1368        38  MOL       H36            10.1239113938        4.7950786331       19.8187021269  SYS             38   0.00000
      1369        39  MOL       C1             15.1723339025       15.3683537115       13.2499529221  SYS             39   0.00000
      1370        39  MOL       C2             16.1642480830       15.9399212491       12.4177895304  SYS             39   0.00000
      1371        39  MOL       C3             13.9415158790       14.8803773500       12.6455099180  SYS             39   0.00000
      1372        39  MOL       C4             15.3517155936       15.2663828839       14.6373604687  SYS             39   0.00000
      1373        39  MOL       C5             15.9855769979       16.0410019281       11.0430331165  SYS             39   0.00000
      1374        39  MOL       H6             16.9695683634       16.2610474055       12.8071632795  SYS             39   0.00000
      1375        39  MOL       C7             13.7850865142       14.9997937586       11.2538853272  SYS             39   0.00000
      1376        39  MOL       C8             12.9603631477       14.3230714619       13.4762676283  SYS             39   0.00000
      1377        39  MOL       C9             14.3705628622       14.7090769958       15.4681181789  SYS             39   0.00000
      1378        39  MOL       H10            16.1652197803       15.5835768409       15.0098660409  SYS             39   0.00000
      1379        39  MOL       C11            16.9815871855       16.6268605028       10.1799447339  SYS             39   0.00000
      1380        39  MOL       C12            14.7610102851       15.5650863345       10.4442128380  SYS             39   0.00000
      1381        39  MOL       H13            12.9837192996       14.6821890129       10.8532661268  SYS             39   0.00000
      1382        39  MOL       H14            12.1468589610       14.0058775049       13.1037620560  SYS             39   0.00000
      1383        39  MOL       C15            13.1397448388       14.2211006343       14.8636751748  SYS             39   0.00000
      1384        39  MOL       C16            14.5269922271       14.5896605872       16.8597427697  SYS             39   0.00000
      1385        39  MOL       C17            16.7836148007       16.7240627003        8.8445473993  SYS             39   0.00000
      1386        39  MOL       H18            17.7913878094       16.9508527034       10.5552616690  SYS             39   0.00000
      1387        39  MOL       C19            14.5971991868       15.6903473244        9.0216632563  SYS             39   0.00000
      1388        39  MOL       C20            12.1478306583       13.6495330967       15.6958385665  SYS             39   0.00000
      1389        39  MOL       C21            13.5510684562       14.0243680113       17.6694152589  SYS             39   0.00000
      1390        39  MOL       H22            15.3283594417       14.9072653329       17.2603619701  SYS             39   0.00000
      1391        39  MOL       C23            15.5761632351       16.2414417644        8.2597839349  SYS             39   0.00000
      1392        39  MOL       H24            17.4520487199       17.1157794994        8.2949259700  SYS             39   0.00000
      1393        39  MOL       H25            13.7973835066       15.3839425856        8.6097986047  SYS             39   0.00000
      1394        39  MOL       H26            11.3425103778       13.3284069403       15.3064648174  SYS             39   0.00000
      1395        39  MOL       C27            12.3265017434       13.5484524177       17.0705949804  SYS             39   0.00000
      1396        39  MOL       C28            13.7148795545       13.8991070214       19.0919648406  SYS             39   0.00000
      1397        39  MOL       H29            15.4550272447       16.3063297064        7.3193830750  SYS             39   0.00000
      1398        39  MOL       C30            11.3304915558       12.9625938430       17.9336833630  SYS             39   0.00000
      1399        39  MOL       C31            12.7359155062       13.3480125814       19.8538441620  SYS             39   0.00000
      1400        39  MOL       H32            14.5146952347       14.2055117602       19.5038294922  SYS             39   0.00000
      1401        39  MOL       C33            11.5284639406       12.8653916455       19.2690806976  SYS             39   0.00000
      1402        39  MOL       H34            10.5206909319       12.6386016424       17.5583664279  SYS             39   0.00000
      1403        39  MOL       H35            12.8570514965       13.2831246394       20.7942450219  SYS             39   0.00000
      1404        39  MOL       H36            10.8600300214       12.4736748464       19.8187021269  SYS             39   0.00000
      1405        40  MOL       C1             13.6410062681       17.4979334873       28.9204892233  SYS             40   0.00000
      1406        40  MOL       C2             12.6490920875       16.9263659498       29.7526526150  SYS             40   0.00000
      1407        40  MOL       C3             14.8718242915       17.9859098489       29.5249322274  SYS             40   0.00000
      1408        40  MOL       C4             13.4616245770       17.5999043150       27.5330816767  SYS             40   0.00000
      1409        40  MOL       C5             12.8277631726       16.8252852707       31.1274090289  SYS             40   0.00000
      1410        40  MOL       H6             11.8437718071       16.6052397934       29.3632788658  SYS             40   0.00000
      1411        40  MOL       C7             15.0282536563       17.8664934402       30.9165568182  SYS             40   0.00000
      1412        40  MOL       C8             15.8529770228       18.5432157369       28.6941745171  SYS             40   0.00000
      1413        40  MOL       C9             14.4427773083       18.1572102030       26.7023239664  SYS             40   0.00000
      1414        40  MOL       H10            12.6481203903       17.2827103580       27.1605761044  SYS             40   0.00000
      1415        40  MOL       C11            11.8317529850       16.2394266960       31.9904974115  SYS             40   0.00000
      1416        40  MOL       C12            14.0523298854       17.3012008644       31.7262293074  SYS             40   0.00000
      1417        40  MOL       H13            15.8296208710       18.1840981859       31.3171760186  SYS             40   0.00000
      1418        40  MOL       H14            16.6664812095       18.8604096939       29.0666800894  SYS             40   0.00000
      1419        40  MOL       C15            15.6735953317       18.6451865645       27.3067669705  SYS             40   0.00000
      1420        40  MOL       C16            14.2863479434       18.2766266117       25.3106993756  SYS             40   0.00000
      1421        40  MOL       C17            12.0297253698       16.1422244985       33.3258947461  SYS             40   0.00000
      1422        40  MOL       H18            11.0219523611       15.9154344955       31.6151804764  SYS             40   0.00000
      1423        40  MOL       C19            14.2161409837       17.1759398744       33.1487788891  SYS             40   0.00000
      1424        40  MOL       C20            16.6655095123       19.2167541021       26.4746035789  SYS             40   0.00000
      1425        40  MOL       C21            15.2622717144       18.8419191875       24.5010268865  SYS             40   0.00000
      1426        40  MOL       H22            13.4849807288       17.9590218659       24.9100801753  SYS             40   0.00000
      1427        40  MOL       C23            13.2371769354       16.6248454344       33.9106582105  SYS             40   0.00000
      1428        40  MOL       H24            11.3612914506       15.7505076994       33.8755161754  SYS             40   0.00000
      1429        40  MOL       H25            15.0159566640       17.4823446133       33.5606435407  SYS             40   0.00000
      1430        40  MOL       H26            17.4708297927       19.5378802585       26.8639773280  SYS             40   0.00000
      1431        40  MOL       C27            16.4868384271       19.3178347812       25.0998471649  SYS             40   0.00000
      1432        40  MOL       C28            15.0984606161       18.9671801774       23.0784773048  SYS             40   0.00000
      1433        40  MOL       H29            13.3583129258       16.5599574924       34.8510590703  SYS             40   0.00000
      1434        40  MOL       C30            17.4828486147       19.9036933558       24.2367587823  SYS             40   0.00000
      1435        40  MOL       C31            16.0774246644       19.5182746174       22.3165979833  SYS             40   0.00000
      1436        40  MOL       H32            14.2986449358       18.6607754386       22.6666126531  SYS             40   0.00000
      1437        40  MOL       C33            17.2848762299       20.0008955534       22.9013614477  SYS             40   0.00000
      1438        40  MOL       H34            18.2926492386       20.2276855564       24.6120757174  SYS             40   0.00000
      1439        40  MOL       H35            15.9562886740       19.5831625595       21.3761971235  SYS             40   0.00000
      1440        40  MOL       H36            17.9533101491       20.3926123524       22.3517400184  SYS             40   0.00000
      1441        41  MOL       C1             16.4097139593       26.3237827778       27.3067669705  SYS             41   0.00000
      1442        41  MOL       C2             17.4016281399       26.8953503153       26.4746035789  SYS             41   0.00000
      1443        41  MOL       C3             15.1788959359       25.8358064162       26.7023239664  SYS             41   0.00000
      1444        41  MOL       C4             16.5890956504       26.2218119501       28.6941745171  SYS             41   0.00000
      1445        41  MOL       C5             17.2229570547       26.9964309944       25.0998471649  SYS             41   0.00000
      1446        41  MOL       H6             18.2069484203       27.2164764718       26.8639773280  SYS             41   0.00000
      1447        41  MOL       C7             15.0224665711       25.9552228249       25.3106993756  SYS             41   0.00000
      1448        41  MOL       C8             14.1977432046       25.2785005282       27.5330816767  SYS             41   0.00000
      1449        41  MOL       C9             15.6079429191       25.6645060621       29.5249322274  SYS             41   0.00000
      1450        41  MOL       H10            17.4025998371       26.5390059072       29.0666800894  SYS             41   0.00000
      1451        41  MOL       C11            18.2189672423       27.5822895691       24.2367587823  SYS             41   0.00000
      1452        41  MOL       C12            15.9983903420       26.5205154007       24.5010268865  SYS             41   0.00000
      1453        41  MOL       H13            14.2210993564       25.6376180792       24.9100801753  SYS             41   0.00000
      1454        41  MOL       H14            13.3842390179       24.9613065712       27.1605761044  SYS             41   0.00000
      1455        41  MOL       C15            14.3771248957       25.1765297006       28.9204892233  SYS             41   0.00000
      1456        41  MOL       C16            15.7643722839       25.5450896534       30.9165568182  SYS             41   0.00000
      1457        41  MOL       C17            18.0209948575       27.6794917666       22.9013614477  SYS             41   0.00000
      1458        41  MOL       H18            19.0287678662       27.9062817696       24.6120757174  SYS             41   0.00000
      1459        41  MOL       C19            15.8345792437       26.6457763907       23.0784773048  SYS             41   0.00000
      1460        41  MOL       C20            13.3852107151       24.6049621630       29.7526526150  SYS             41   0.00000
      1461        41  MOL       C21            14.7884485130       24.9797970776       31.7262293074  SYS             41   0.00000
      1462        41  MOL       H22            16.5657394986       25.8626943992       31.3171760186  SYS             41   0.00000
      1463        41  MOL       C23            16.8135432920       27.1968708307       22.3165979833  SYS             41   0.00000
      1464        41  MOL       H24            18.6894287767       28.0712085657       22.3517400184  SYS             41   0.00000
      1465        41  MOL       H25            15.0347635634       26.3393716519       22.6666126531  SYS             41   0.00000
      1466        41  MOL       H26            12.5798904347       24.2838360066       29.3632788658  SYS             41   0.00000
      1467        41  MOL       C27            13.5638818002       24.5038814839       31.1274090289  SYS             41   0.00000
      1468        41  MOL       C28            14.9522596113       24.8545360877       33.1487788891  SYS             41   0.00000
      1469        41  MOL       H29            16.6924073016       27.2617587727       21.3761971235  SYS             41   0.00000
      1470        41  MOL       C30            12.5678716126       23.9180229093       31.9904974115  SYS             41   0.00000
      1471        41  MOL       C31            13.9732955630       24.3034416477       33.9106582105  SYS             41   0.00000
      1472        41  MOL       H32            15.7520752916       25.1609408265       33.5606435407  SYS             41   0.00000
      1473        41  MOL       C33            12.7658439974       23.8208207118       33.3258947461  SYS             41   0.00000
      1474        41  MOL       H34            11.7580709888       23.5940307087       31.6151804764  SYS             41   0.00000
      1475        41  MOL       H35            14.0944315534       24.2385537056       34.8510590703  SYS             41   0.00000
      1476        41  MOL       H36            12.0974100782       23.4291039127       33.8755161754  SYS             41   0.00000
      1477        42  MOL       C1             11.9023647820        3.2656715680        0.8068611264  SYS             42   0.00000
      1478        42  MOL       C2             10.9104506014        2.6941040305        1.6390245180  SYS             42   0.00000
      1479        42  MOL       C3             13.1331828054        3.7536479296        1.4113041305  SYS             42   0.00000
      1480        42  MOL       C4             11.7229830909        3.3676423957       -0.5805464202  SYS             42   0.00000
      1481        42  MOL       C5             11.0891216865        2.5930233514        3.0137809320  SYS             42   0.00000
      1482        42  MOL       H6             10.1051303210        2.3729778740        1.2496507689  SYS             42   0.00000
      1483        42  MOL       C7             13.2896121702        3.6342315209        2.8029287213  SYS             42   0.00000
      1484        42  MOL       C8             14.1143355367        4.3109538176        0.5805464202  SYS             42   0.00000
      1485        42  MOL       C9             12.7041358222        3.9249482837       -1.4113041305  SYS             42   0.00000
      1486        42  MOL       H10            10.9094789042        3.0504484387       -0.9530519925  SYS             42   0.00000
      1487        42  MOL       C11            10.0931114990        2.0071647767        3.8768693146  SYS             42   0.00000
      1488        42  MOL       C12            12.3136883993        3.0689389451        3.6126012105  SYS             42   0.00000
      1489        42  MOL       H13            14.0909793849        3.9518362666        3.2035479216  SYS             42   0.00000
      1490        42  MOL       H14            14.9278397234        4.6281477746        0.9530519925  SYS             42   0.00000
      1491        42  MOL       C15            13.9349538456        4.4129246452       -0.8068611264  SYS             42   0.00000
      1492        42  MOL       C16            12.5477064574        4.0443646924       -2.8029287213  SYS             42   0.00000
      1493        42  MOL       C17            10.2910838838        1.9099625792        5.2122666492  SYS             42   0.00000
      1494        42  MOL       H18             9.2833108751        1.6831725762        3.5015523795  SYS             42   0.00000
      1495        42  MOL       C19            12.4774994976        2.9436779551        5.0351507922  SYS             42   0.00000
      1496        42  MOL       C20            14.9268680262        4.9844921828       -1.6390245180  SYS             42   0.00000
      1497        42  MOL       C21            13.5236302283        4.6096572682       -3.6126012105  SYS             42   0.00000
      1498        42  MOL       H22            11.7463392427        3.7267599466       -3.2035479216  SYS             42   0.00000
      1499        42  MOL       C23            11.4985354493        2.3925835151        5.7970301136  SYS             42   0.00000
      1500        42  MOL       H24             9.6226499646        1.5182457801        5.7618880785  SYS             42   0.00000
      1501        42  MOL       H25            13.2773151779        3.2500826939        5.4470154438  SYS             42   0.00000
      1502        42  MOL       H26            15.7321883066        5.3056183392       -1.2496507689  SYS             42   0.00000
      1503        42  MOL       C27            14.7481969411        5.0855728619       -3.0137809320  SYS             42   0.00000
      1504        42  MOL       C28            13.3598191300        4.7349182581       -5.0351507922  SYS             42   0.00000
      1505        42  MOL       H29            11.6196714397        2.3276955731        6.7374309734  SYS             42   0.00000
      1506        42  MOL       C30            15.7442071286        5.6714314365       -3.8768693146  SYS             42   0.00000
      1507        42  MOL       C31            14.3387831783        5.2860126981       -5.7970301136  SYS             42   0.00000
      1508        42  MOL       H32            12.5600034497        4.4285135193       -5.4470154438  SYS             42   0.00000
      1509        42  MOL       C33            15.5462347438        5.7686336340       -5.2122666492  SYS             42   0.00000
      1510        42  MOL       H34            16.5540077525        5.9954236371       -3.5015523795  SYS             42   0.00000
      1511        42  MOL       H35            14.2176471879        5.3509006402       -6.7374309734  SYS             42   0.00000
      1512        42  MOL       H36            16.2146686631        6.1603504331       -5.7618880785  SYS             42   0.00000
      1513        43  MOL       C1             12.6384834096       10.9442677813        0.8068611264  SYS             43   0.00000
      1514        43  MOL       C2             11.6465692290       10.3727002437        1.6390245180  SYS             43   0.00000
      1515        43  MOL       C3             13.8693014330       11.4322441428        1.4113041305  SYS             43   0.00000
      1516        43  MOL       C4             12.4591017185       11.0462386089       -0.5805464202  SYS             43   0.00000
      1517        43  MOL       C5             11.8252403141       10.2716195646        3.0137809320  SYS             43   0.00000
      1518        43  MOL       H6             10.8412489486       10.0515740873        1.2496507689  SYS             43   0.00000
      1519        43  MOL       C7             14.0257307978       11.3128277341        2.8029287213  SYS             43   0.00000
      1520        43  MOL       C8             14.8504541643       11.9895500308        0.5805464202  SYS             43   0.00000
      1521        43  MOL       C9             13.4402544498       11.6035444969       -1.4113041305  SYS             43   0.00000
      1522        43  MOL       H10            11.6455975318       10.7290446519       -0.9530519925  SYS             43   0.00000
      1523        43  MOL       C11            10.8292301266        9.6857609900        3.8768693146  SYS             43   0.00000
      1524        43  MOL       C12            13.0498070269       10.7475351583        3.6126012105  SYS             43   0.00000
      1525        43  MOL       H13            14.8270980125       11.6304324799        3.2035479216  SYS             43   0.00000
      1526        43  MOL       H14            15.6639583510       12.3067439878        0.9530519925  SYS             43   0.00000
      1527        43  MOL       C15            14.6710724732       12.0915208585       -0.8068611264  SYS             43   0.00000
      1528        43  MOL       C16            13.2838250850       11.7229609056       -2.8029287213  SYS             43   0.00000
      1529        43  MOL       C17            11.0272025114        9.5885587924        5.2122666492  SYS             43   0.00000
      1530        43  MOL       H18            10.0194295027        9.3617687894        3.5015523795  SYS             43   0.00000
      1531        43  MOL       C19            13.2136181252       10.6222741684        5.0351507922  SYS             43   0.00000
      1532        43  MOL       C20            15.6629866538       12.6630883960       -1.6390245180  SYS             43   0.00000
      1533        43  MOL       C21            14.2597488559       12.2882534814       -3.6126012105  SYS             43   0.00000
      1534        43  MOL       H22            12.4824578703       11.4053561599       -3.2035479216  SYS             43   0.00000
      1535        43  MOL       C23            12.2346540769       10.0711797284        5.7970301136  SYS             43   0.00000
      1536        43  MOL       H24            10.3587685922        9.1968419934        5.7618880785  SYS             43   0.00000
      1537        43  MOL       H25            14.0134338055       10.9286789072        5.4470154438  SYS             43   0.00000
      1538        43  MOL       H26            16.4683069342       12.9842145524       -1.2496507689  SYS             43   0.00000
      1539        43  MOL       C27            15.4843155687       12.7641690751       -3.0137809320  SYS             43   0.00000
      1540        43  MOL       C28            14.0959377576       12.4135144714       -5.0351507922  SYS             43   0.00000
      1541        43  MOL       H29            12.3557900673       10.0062917863        6.7374309734  SYS             43   0.00000
      1542        43  MOL       C30            16.4803257562       13.3500276498       -3.8768693146  SYS             43   0.00000
      1543        43  MOL       C31            15.0749018059       12.9646089114       -5.7970301136  SYS             43   0.00000
      1544        43  MOL       H32            13.2961220773       12.1071097325       -5.4470154438  SYS             43   0.00000
      1545        43  MOL       C33            16.2823533714       13.4472298473       -5.2122666492  SYS             43   0.00000
      1546        43  MOL       H34            17.2901263801       13.6740198503       -3.5015523795  SYS             43   0.00000
      1547        43  MOL       H35            14.9537658155       13.0294968534       -6.7374309734  SYS             43   0.00000
      1548        43  MOL       H36            16.9507872907       13.8389466464       -5.7618880785  SYS             43   0.00000
      1549        44  MOL       C1             15.9084525301       23.0469499247       13.2499529221  SYS             44   0.00000
      1550        44  MOL       C2             16.9003667106       23.6185174623       12.4177895304  SYS             44   0.00000
      1551        44  MOL       C3             14.6776345066       22.5589735632       12.6455099180  SYS             44   0.00000
      1552        44  MOL       C4             16.0878342212       22.9449790971       14.6373604687  SYS             44   0.00000
      1553        44  MOL       C5             16.7216956255       23.7195981414       11.0430331165  SYS             44   0.00000
      1554        44  MOL       H6             17.7056869910       23.9396436187       12.8071632795  SYS             44   0.00000
      1555        44  MOL       C7             14.5212051418       22.6783899719       11.2538853272  SYS             44   0.00000
      1556        44  MOL       C8             13.6964817753       22.0016676752       13.4762676283  SYS             44   0.00000
      1557        44  MOL       C9             15.1066814898       22.3876732091       15.4681181789  SYS             44   0.00000
      1558        44  MOL       H10            16.9013384079       23.2621730541       15.0098660409  SYS             44   0.00000
      1559        44  MOL       C11            17.7177058131       24.3054567161       10.1799447339  SYS             44   0.00000
      1560        44  MOL       C12            15.4971289127       23.2436825477       10.4442128380  SYS             44   0.00000
      1561        44  MOL       H13            13.7198379272       22.3607852262       10.8532661268  SYS             44   0.00000
      1562        44  MOL       H14            12.8829775886       21.6844737182       13.1037620560  SYS             44   0.00000
      1563        44  MOL       C15            13.8758634664       21.8996968476       14.8636751748  SYS             44   0.00000
      1564        44  MOL       C16            15.2631108547       22.2682568004       16.8597427697  SYS             44   0.00000
      1565        44  MOL       C17            17.5197334283       24.4026589136        8.8445473993  SYS             44   0.00000
      1566        44  MOL       H18            18.5275064370       24.6294489166       10.5552616690  SYS             44   0.00000
      1567        44  MOL       C19            15.3333178144       23.3689435377        9.0216632563  SYS             44   0.00000
      1568        44  MOL       C20            12.8839492859       21.3281293100       15.6958385665  SYS             44   0.00000
      1569        44  MOL       C21            14.2871870838       21.7029642246       17.6694152589  SYS             44   0.00000
      1570        44  MOL       H22            16.0644780693       22.5858615461       17.2603619701  SYS             44   0.00000
      1571        44  MOL       C23            16.3122818627       23.9200379777        8.2597839349  SYS             44   0.00000
      1572        44  MOL       H24            18.1881673475       24.7943757127        8.2949259700  SYS             44   0.00000
      1573        44  MOL       H25            14.5335021342       23.0625387988        8.6097986047  SYS             44   0.00000
      1574        44  MOL       H26            12.0786290054       21.0070031536       15.3064648174  SYS             44   0.00000
      1575        44  MOL       C27            13.0626203710       21.2270486309       17.0705949804  SYS             44   0.00000
      1576        44  MOL       C28            14.4509981821       21.5777032346       19.0919648406  SYS             44   0.00000
      1577        44  MOL       H29            16.1911458723       23.9849259197        7.3193830750  SYS             44   0.00000
      1578        44  MOL       C30            12.0666101834       20.6411900562       17.9336833630  SYS             44   0.00000
      1579        44  MOL       C31            13.4720341338       21.0266087946       19.8538441620  SYS             44   0.00000
      1580        44  MOL       H32            15.2508138623       21.8841079735       19.5038294922  SYS             44   0.00000
      1581        44  MOL       C33            12.2645825682       20.5439878587       19.2690806976  SYS             44   0.00000
      1582        44  MOL       H34            11.2568095595       20.3171978557       17.5583664279  SYS             44   0.00000
      1583        44  MOL       H35            13.5931701242       20.9617208526       20.7942450219  SYS             44   0.00000
      1584        44  MOL       H36            11.5961486490       20.1522710596       19.8187021269  SYS             44   0.00000
      1585        45  MOL       C1             13.3746020372       18.6228639945        0.8068611264  SYS             45   0.00000
      1586        45  MOL       C2             12.3826878566       18.0512964570        1.6390245180  SYS             45   0.00000
      1587        45  MOL       C3             14.6054200606       19.1108403560        1.4113041305  SYS             45   0.00000
      1588        45  MOL       C4             13.1952203461       18.7248348221       -0.5805464202  SYS             45   0.00000
      1589        45  MOL       C5             12.5613589418       17.9502157779        3.0137809320  SYS             45   0.00000
      1590        45  MOL       H6             11.5773675762       17.7301703005        1.2496507689  SYS             45   0.00000
      1591        45  MOL       C7             14.7618494254       18.9914239474        2.8029287213  SYS             45   0.00000
      1592        45  MOL       C8             15.5865727919       19.6681462441        0.5805464202  SYS             45   0.00000
      1593        45  MOL       C9             14.1763730774       19.2821407102       -1.4113041305  SYS             45   0.00000
      1594        45  MOL       H10            12.3817161594       18.4076408651       -0.9530519925  SYS             45   0.00000
      1595        45  MOL       C11            11.5653487542       17.3643572032        3.8768693146  SYS             45   0.00000
      1596        45  MOL       C12            13.7859256545       18.4261313716        3.6126012105  SYS             45   0.00000
      1597        45  MOL       H13            15.5632166401       19.3090286931        3.2035479216  SYS             45   0.00000
      1598        45  MOL       H14            16.4000769786       19.9853402011        0.9530519925  SYS             45   0.00000
      1599        45  MOL       C15            15.4071911008       19.7701170717       -0.8068611264  SYS             45   0.00000
      1600        45  MOL       C16            14.0199437126       19.4015571189       -2.8029287213  SYS             45   0.00000
      1601        45  MOL       C17            11.7633211390       17.2671550057        5.2122666492  SYS             45   0.00000
      1602        45  MOL       H18            10.7555481303       17.0403650027        3.5015523795  SYS             45   0.00000
      1603        45  MOL       C19            13.9497367528       18.3008703816        5.0351507922  SYS             45   0.00000
      1604        45  MOL       C20            16.3991052814       20.3416846093       -1.6390245180  SYS             45   0.00000
      1605        45  MOL       C21            14.9958674835       19.9668496947       -3.6126012105  SYS             45   0.00000
      1606        45  MOL       H22            13.2185764979       19.0839523731       -3.2035479216  SYS             45   0.00000
      1607        45  MOL       C23            12.9707727045       17.7497759416        5.7970301136  SYS             45   0.00000
      1608        45  MOL       H24            11.0948872198       16.8754382066        5.7618880785  SYS             45   0.00000
      1609        45  MOL       H25            14.7495524331       18.6072751204        5.4470154438  SYS             45   0.00000
      1610        45  MOL       H26            17.2044255618       20.6628107657       -1.2496507689  SYS             45   0.00000
      1611        45  MOL       C27            16.2204341963       20.4427652884       -3.0137809320  SYS             45   0.00000
      1612        45  MOL       C28            14.8320563852       20.0921106846       -5.0351507922  SYS             45   0.00000
      1613        45  MOL       H29            13.0919086949       17.6848879996        6.7374309734  SYS             45   0.00000
      1614        45  MOL       C30            17.2164443838       21.0286238630       -3.8768693146  SYS             45   0.00000
      1615        45  MOL       C31            15.8110204335       20.6432051246       -5.7970301136  SYS             45   0.00000
      1616        45  MOL       H32            14.0322407049       19.7857059458       -5.4470154438  SYS             45   0.00000
      1617        45  MOL       C33            17.0184719991       21.1258260605       -5.2122666492  SYS             45   0.00000
      1618        45  MOL       H34            18.0262450077       21.3526160636       -3.5015523795  SYS             45   0.00000
      1619        45  MOL       H35            15.6898844431       20.7080930667       -6.7374309734  SYS             45   0.00000
      1620        45  MOL       H36            17.6869059183       21.5175428596       -5.7618880785  SYS             45   0.00000
      1621        46  MOL       C1             -0.8756335046       10.9283353261       13.0644029766  SYS             46   0.00000
      1622        46  MOL       C2              0.1087296662       10.9234264095       12.0452839581  SYS             46   0.00000
      1623        46  MOL       C3             -2.1197303881       11.6574843978       12.8324655448  SYS             46   0.00000
      1624        46  MOL       C4             -0.7050484191       10.2482300362       14.2775060290  SYS             46   0.00000
      1625        46  MOL       C5             -0.0869048617       11.5826772008       10.8448320384  SYS             46   0.00000
      1626        46  MOL       H6              0.9230300926       10.4557654552       12.1900691428  SYS             46   0.00000
      1627        46  MOL       C7             -2.2901625646       12.3342003618       11.6081170412  SYS             46   0.00000
      1628        46  MOL       C8             -3.0954914672       11.6626280964       13.8361220679  SYS             46   0.00000
      1629        46  MOL       C9             -1.6808094982       10.2533737348       15.2811625521  SYS             46   0.00000
      1630        46  MOL       H10             0.1086035221        9.7757565298       14.4082343997  SYS             46   0.00000
      1631        46  MOL       C11             0.8973256106       11.5658298053        9.8074391616  SYS             46   0.00000
      1632        46  MOL       C12            -1.3175844756       12.3069941286       10.6185173322  SYS             46   0.00000
      1633        46  MOL       H13            -3.0913569495       12.8217229691       11.4563034495  SYS             46   0.00000
      1634        46  MOL       H14            -3.9091434084       12.1351016028       13.7053936972  SYS             46   0.00000
      1635        46  MOL       C15            -2.9249063818       10.9825228064       15.0492251203  SYS             46   0.00000
      1636        46  MOL       C16            -1.5103773217        9.5766577707       16.5055110557  SYS             46   0.00000
      1637        46  MOL       C17             0.6861256716       12.2093663332        8.6351008700  SYS             46   0.00000
      1638        46  MOL       H18             1.7120264220       11.0969706108        9.9437902579  SYS             46   0.00000
      1639        46  MOL       C19            -1.4893987252       12.9668465686        9.3646495191  SYS             46   0.00000
      1640        46  MOL       C20            -3.9092695526       10.9874317230       16.0683441388  SYS             46   0.00000
      1641        46  MOL       C21            -2.4829554108        9.6038640039       17.4951107647  SYS             46   0.00000
      1642        46  MOL       H22            -0.7091829368        9.0891351634       16.6573246474  SYS             46   0.00000
      1643        46  MOL       C23            -0.5317318770       12.9238135790        8.4059748010  SYS             46   0.00000
      1644        46  MOL       H24             1.3526294728       12.1861261067        7.9589681142  SYS             46   0.00000
      1645        46  MOL       H25            -2.2920163490       13.4480209045        9.1987791133  SYS             46   0.00000
      1646        46  MOL       H26            -4.7235699789       11.4550926774       15.9235589541  SYS             46   0.00000
      1647        46  MOL       C27            -3.7136350247       10.3281809318       17.2687960585  SYS             46   0.00000
      1648        46  MOL       C28            -2.3111411611        8.9440115640       18.7489785778  SYS             46   0.00000
      1649        46  MOL       H29            -0.6701453472       13.3688994693        7.5780284535  SYS             46   0.00000
      1650        46  MOL       C30            -4.6978654970       10.3450283273       18.3061889353  SYS             46   0.00000
      1651        46  MOL       C31            -3.2688080094        8.9870445535       19.7076532959  SYS             46   0.00000
      1652        46  MOL       H32            -1.5085235373        8.4628372280       18.9148489836  SYS             46   0.00000
      1653        46  MOL       C33            -4.4866655579        9.7014917994       19.4785272269  SYS             46   0.00000
      1654        46  MOL       H34            -5.5125663083       10.8138875217       18.1698378390  SYS             46   0.00000
      1655        46  MOL       H35            -3.1303945391        8.5419586633       20.5355996434  SYS             46   0.00000
      1656        46  MOL       H36            -5.1531693591        9.7247320259       20.1546599827  SYS             46   0.00000
      1657        47  MOL       C1             -1.9223835233       17.5361885125       43.1628532172  SYS             47   0.00000
      1658        47  MOL       C2             -2.9067466941       17.5410974291       44.1819722357  SYS             47   0.00000
      1659        47  MOL       C3             -0.6782866397       16.8070394408       43.3947906490  SYS             47   0.00000
      1660        47  MOL       C4             -2.0929686087       18.2162938024       41.9497501648  SYS             47   0.00000
      1661        47  MOL       C5             -2.7111121662       16.8818466378       45.3824241554  SYS             47   0.00000
      1662        47  MOL       H6             -3.7210471204       18.0087583834       44.0371870510  SYS             47   0.00000
      1663        47  MOL       C7             -0.5078544633       16.1303234768       44.6191391526  SYS             47   0.00000
      1664        47  MOL       C8              0.2974744393       16.8018957423       42.3911341259  SYS             47   0.00000
      1665        47  MOL       C9             -1.1172075297       18.2111501039       40.9460936417  SYS             47   0.00000
      1666        47  MOL       H10            -2.9066205499       18.6887673088       41.8190217942  SYS             47   0.00000
      1667        47  MOL       C11            -3.6953426385       16.8986940333       46.4198170322  SYS             47   0.00000
      1668        47  MOL       C12            -1.4804325523       16.1575297100       45.6087388616  SYS             47   0.00000
      1669        47  MOL       H13             0.2933399216       15.6428008695       44.7709527443  SYS             47   0.00000
      1670        47  MOL       H14             1.1111263805       16.3294222358       42.5218624966  SYS             47   0.00000
      1671        47  MOL       C15             0.1268893539       17.4820010322       41.1780310735  SYS             47   0.00000
      1672        47  MOL       C16            -1.2876397061       18.8878660679       39.7217451381  SYS             47   0.00000
      1673        47  MOL       C17            -3.4841426994       16.2551575054       47.5921553239  SYS             47   0.00000
      1674        47  MOL       H18            -4.5100434498       17.3675532278       46.2834659359  SYS             47   0.00000
      1675        47  MOL       C19            -1.3086183026       15.4976772700       46.8626066747  SYS             47   0.00000
      1676        47  MOL       C20             1.1112525247       17.4770921156       40.1589120550  SYS             47   0.00000
      1677        47  MOL       C21            -0.3150616171       18.8606598347       38.7321454291  SYS             47   0.00000
      1678        47  MOL       H22            -2.0888340910       19.3753886752       39.5699315464  SYS             47   0.00000
      1679        47  MOL       C23            -2.2662851509       15.5407102596       47.8212813928  SYS             47   0.00000
      1680        47  MOL       H24            -4.1506465007       16.2783977319       48.2682880796  SYS             47   0.00000
      1681        47  MOL       H25            -0.5060006788       15.0165029341       47.0284770805  SYS             47   0.00000
      1682        47  MOL       H26             1.9255529510       17.0094311613       40.3036972397  SYS             47   0.00000
      1683        47  MOL       C27             0.9156179968       18.1363429068       38.9584601353  SYS             47   0.00000
      1684        47  MOL       C28            -0.4868758668       19.5205122746       37.4782776160  SYS             47   0.00000
      1685        47  MOL       H29            -2.1278716807       15.0956243693       48.6492277403  SYS             47   0.00000
      1686        47  MOL       C30             1.8998484691       18.1194955113       37.9210672585  SYS             47   0.00000
      1687        47  MOL       C31             0.4707909815       19.4774792851       36.5196028979  SYS             47   0.00000
      1688        47  MOL       H32            -1.2894934905       20.0016866106       37.3124072102  SYS             47   0.00000
      1689        47  MOL       C33             1.6886485300       18.7630320392       36.7487289669  SYS             47   0.00000
      1690        47  MOL       H34             2.7145492804       17.6506363169       38.0574183548  SYS             47   0.00000
      1691        47  MOL       H35             0.3323775113       19.9225651753       35.6916565504  SYS             47   0.00000
      1692        47  MOL       H36             2.3551523313       18.7397918127       36.0725962111  SYS             47   0.00000
      1693        48  MOL       C1             -0.3743720753       14.2051681792       27.1212170251  SYS             48   0.00000
      1694        48  MOL       C2              0.6099910955       14.2002592626       26.1020980066  SYS             48   0.00000
      1695        48  MOL       C3             -1.6184689589       14.9343172508       26.8892795933  SYS             48   0.00000
      1696        48  MOL       C4             -0.2037869899       13.5250628892       28.3343200775  SYS             48   0.00000
      1697        48  MOL       C5              0.4143565676       14.8595100538       24.9016460868  SYS             48   0.00000
      1698        48  MOL       H6              1.4242915218       13.7325983082       26.2468831913  SYS             48   0.00000
      1699        48  MOL       C7             -1.7889011354       15.6110332149       25.6649310897  SYS             48   0.00000
      1700        48  MOL       C8             -2.5942300380       14.9394609494       27.8929361164  SYS             48   0.00000
      1701        48  MOL       C9             -1.1795480690       13.5302065878       29.3379766005  SYS             48   0.00000
      1702        48  MOL       H10             0.6098649513       13.0525893828       28.4650484481  SYS             48   0.00000
      1703        48  MOL       C11             1.3985870399       14.8426626583       23.8642532101  SYS             48   0.00000
      1704        48  MOL       C12            -0.8163230463       15.5838269816       24.6753313807  SYS             48   0.00000
      1705        48  MOL       H13            -2.5900955203       16.0985558222       25.5131174979  SYS             48   0.00000
      1706        48  MOL       H14            -3.4078819791       15.4119344558       27.7622077457  SYS             48   0.00000
      1707        48  MOL       C15            -2.4236449525       14.2593556595       29.1060391687  SYS             48   0.00000
      1708        48  MOL       C16            -1.0091158925       12.8534906238       30.5623251042  SYS             48   0.00000
      1709        48  MOL       C17             1.1873871008       15.4861991862       22.6919149184  SYS             48   0.00000
      1710        48  MOL       H18             2.2132878512       14.3738034639       24.0006043063  SYS             48   0.00000
      1711        48  MOL       C19            -0.9881372960       16.2436794216       23.4214635675  SYS             48   0.00000
      1712        48  MOL       C20            -3.4080081233       14.2642645760       30.1251581872  SYS             48   0.00000
      1713        48  MOL       C21            -1.9816939815       12.8806968570       31.5519248132  SYS             48   0.00000
      1714        48  MOL       H22            -0.2079215076       12.3659680165       30.7141386959  SYS             48   0.00000
      1715        48  MOL       C23            -0.0304704477       16.2006464320       22.4627888494  SYS             48   0.00000
      1716        48  MOL       H24             1.8538909020       15.4629589597       22.0157821627  SYS             48   0.00000
      1717        48  MOL       H25            -1.7907549198       16.7248537576       23.2555931618  SYS             48   0.00000
      1718        48  MOL       H26            -4.2223085497       14.7319255304       29.9803730025  SYS             48   0.00000
      1719        48  MOL       C27            -3.2123735954       13.6050137848       31.3256101070  SYS             48   0.00000
      1720        48  MOL       C28            -1.8098797319       12.2208444170       32.8057926263  SYS             48   0.00000
      1721        48  MOL       H29            -0.1688839180       16.6457323223       21.6348425020  SYS             48   0.00000
      1722        48  MOL       C30            -4.1966040677       13.6218611803       32.3630029838  SYS             48   0.00000
      1723        48  MOL       C31            -2.7675465801       12.2638774066       33.7644673444  SYS             48   0.00000
      1724        48  MOL       H32            -1.0072621081       11.7396700810       32.9716630321  SYS             48   0.00000
      1725        48  MOL       C33            -3.9854041287       12.9783246524       33.5353412754  SYS             48   0.00000
      1726        48  MOL       H34            -5.0113048791       14.0907203747       32.2266518875  SYS             48   0.00000
      1727        48  MOL       H35            -2.6291331099       11.8187915163       34.5924136918  SYS             48   0.00000
      1728        48  MOL       H36            -4.6519079299       13.0015648789       34.2114740311  SYS             48   0.00000
      1729        49  MOL       C1             -0.6092292737        9.8034048189       41.1780310735  SYS             49   0.00000
      1730        49  MOL       C2              0.3751338971        9.7984959024       40.1589120550  SYS             49   0.00000
      1731        49  MOL       C3             -1.8533261573       10.5325538906       40.9460936417  SYS             49   0.00000
      1732        49  MOL       C4             -0.4386441883        9.1232995290       42.3911341259  SYS             49   0.00000
      1733        49  MOL       C5              0.1794993692       10.4577466936       38.9584601353  SYS             49   0.00000
      1734        49  MOL       H6              1.1894343234        9.3308349480       40.3036972397  SYS             49   0.00000
      1735        49  MOL       C7             -2.0237583337       11.2092698546       39.7217451381  SYS             49   0.00000
      1736        49  MOL       C8             -2.8290872363       10.5376975892       41.9497501648  SYS             49   0.00000
      1737        49  MOL       C9             -1.4144052673        9.1284432276       43.3947906490  SYS             49   0.00000
      1738        49  MOL       H10             0.3750077529        8.6508260226       42.5218624966  SYS             49   0.00000
      1739        49  MOL       C11             1.1637298415       10.4408992981       37.9210672585  SYS             49   0.00000
      1740        49  MOL       C12            -1.0511802447       11.1820636214       38.7321454291  SYS             49   0.00000
      1741        49  MOL       H13            -2.8249527186       11.6967924619       39.5699315464  SYS             49   0.00000
      1742        49  MOL       H14            -3.6427391775       11.0101710956       41.8190217942  SYS             49   0.00000
      1743        49  MOL       C15            -2.6585021509        9.8575922992       43.1628532172  SYS             49   0.00000
      1744        49  MOL       C16            -1.2439730909        8.4517272635       44.6191391526  SYS             49   0.00000
      1745        49  MOL       C17             0.9525299024       11.0844358260       36.7487289669  SYS             49   0.00000
      1746        49  MOL       H18             1.9784306528        9.9720401037       38.0574183548  SYS             49   0.00000
      1747        49  MOL       C19            -1.2229944944       11.8419160614       37.4782776160  SYS             49   0.00000
      1748        49  MOL       C20            -3.6428653217        9.8625012158       44.1819722357  SYS             49   0.00000
      1749        49  MOL       C21            -2.2165511799        8.4789334967       45.6087388616  SYS             49   0.00000
      1750        49  MOL       H22            -0.4427787060        7.9642046562       44.7709527443  SYS             49   0.00000
      1751        49  MOL       C23            -0.2653276461       11.7988830718       36.5196028979  SYS             49   0.00000
      1752        49  MOL       H24             1.6190337037       11.0611955995       36.0725962111  SYS             49   0.00000
      1753        49  MOL       H25            -2.0256121182       12.3230903974       37.3124072102  SYS             49   0.00000
      1754        49  MOL       H26            -4.4571657480       10.3301621702       44.0371870510  SYS             49   0.00000
      1755        49  MOL       C27            -3.4472307938        9.2032504246       45.3824241554  SYS             49   0.00000
      1756        49  MOL       C28            -2.0447369302        7.8190810568       46.8626066747  SYS             49   0.00000
      1757        49  MOL       H29            -0.4037411163       12.2439689621       35.6916565504  SYS             49   0.00000
      1758        49  MOL       C30            -4.4314612661        9.2200978201       46.4198170322  SYS             49   0.00000
      1759        49  MOL       C31            -3.0024037785        7.8621140464       47.8212813928  SYS             49   0.00000
      1760        49  MOL       H32            -1.2421193065        7.3379067208       47.0284770805  SYS             49   0.00000
      1761        49  MOL       C33            -4.2202613270        8.5765612922       47.5921553239  SYS             49   0.00000
      1762        49  MOL       H34            -5.2461620774        9.6889570145       46.2834659359  SYS             49   0.00000
      1763        49  MOL       H35            -2.8639903083        7.4170281561       48.6492277403  SYS             49   0.00000
      1764        49  MOL       H36            -4.8867651283        8.5998015187       48.2682880796  SYS             49   0.00000
      1765        50  MOL       C1             -1.1104907029        6.5265719659       27.1212170251  SYS             50   0.00000
      1766        50  MOL       C2             -0.1261275321        6.5216630493       26.1020980066  SYS             50   0.00000
      1767        50  MOL       C3             -2.3545875865        7.2557210376       26.8892795933  SYS             50   0.00000
      1768        50  MOL       C4             -0.9399056175        5.8464666760       28.3343200775  SYS             50   0.00000
      1769        50  MOL       C5             -0.3217620600        7.1809138406       24.9016460868  SYS             50   0.00000
      1770        50  MOL       H6              0.6881728942        6.0540020950       26.2468831913  SYS             50   0.00000
      1771        50  MOL       C7             -2.5250197630        7.9324370016       25.6649310897  SYS             50   0.00000
      1772        50  MOL       C8             -3.3303486656        7.2608647361       27.8929361164  SYS             50   0.00000
      1773        50  MOL       C9             -1.9156666966        5.8516103745       29.3379766005  SYS             50   0.00000
      1774        50  MOL       H10            -0.1262536763        5.3739931695       28.4650484481  SYS             50   0.00000
      1775        50  MOL       C11             0.6624684123        7.1640664451       23.8642532101  SYS             50   0.00000
      1776        50  MOL       C12            -1.5524416739        7.9052307684       24.6753313807  SYS             50   0.00000
      1777        50  MOL       H13            -3.3262141479        8.4199596089       25.5131174979  SYS             50   0.00000
      1778        50  MOL       H14            -4.1440006067        7.7333382426       27.7622077457  SYS             50   0.00000
      1779        50  MOL       C15            -3.1597635801        6.5807594462       29.1060391687  SYS             50   0.00000
      1780        50  MOL       C16            -1.7452345201        5.1748944105       30.5623251042  SYS             50   0.00000
      1781        50  MOL       C17             0.4512684732        7.8076029730       22.6919149184  SYS             50   0.00000
      1782        50  MOL       H18             1.4771692236        6.6952072506       24.0006043063  SYS             50   0.00000
      1783        50  MOL       C19            -1.7242559236        8.5650832084       23.4214635675  SYS             50   0.00000
      1784        50  MOL       C20            -4.1441267509        6.5856683628       30.1251581872  SYS             50   0.00000
      1785        50  MOL       C21            -2.7178126091        5.2021006437       31.5519248132  SYS             50   0.00000
      1786        50  MOL       H22            -0.9440401352        4.6873718032       30.7141386959  SYS             50   0.00000
      1787        50  MOL       C23            -0.7665890753        8.5220502188       22.4627888494  SYS             50   0.00000
      1788        50  MOL       H24             1.1177722744        7.7843627465       22.0157821627  SYS             50   0.00000
      1789        50  MOL       H25            -2.5268735474        9.0462575443       23.2555931618  SYS             50   0.00000
      1790        50  MOL       H26            -4.9584271773        7.0533293171       29.9803730025  SYS             50   0.00000
      1791        50  MOL       C27            -3.9484922230        5.9264175716       31.3256101070  SYS             50   0.00000
      1792        50  MOL       C28            -2.5459983595        4.5422482038       32.8057926263  SYS             50   0.00000
      1793        50  MOL       H29            -0.9050025456        8.9671361091       21.6348425020  SYS             50   0.00000
      1794        50  MOL       C30            -4.9327226953        5.9432649671       32.3630029838  SYS             50   0.00000
      1795        50  MOL       C31            -3.5036652077        4.5852811933       33.7644673444  SYS             50   0.00000
      1796        50  MOL       H32            -1.7433807357        4.0610738678       32.9716630321  SYS             50   0.00000
      1797        50  MOL       C33            -4.7215227563        5.2997284391       33.5353412754  SYS             50   0.00000
      1798        50  MOL       H34            -5.7474235067        6.4121241615       32.2266518875  SYS             50   0.00000
      1799        50  MOL       H35            -3.3652517375        4.1401953031       34.5924136918  SYS             50   0.00000
      1800        50  MOL       H36            -5.3880265575        5.3229686656       34.2114740311  SYS             50   0.00000
      1801        51  MOL       C1             -3.6610250094        3.3039265932       15.0492251203  SYS             51   0.00000
      1802        51  MOL       C2             -4.6453881802        3.3088355098       16.0683441388  SYS             51   0.00000
      1803        51  MOL       C3             -2.4169281258        2.5747775215       15.2811625521  SYS             51   0.00000
      1804        51  MOL       C4             -3.8316100948        3.9840318831       13.8361220679  SYS             51   0.00000
      1805        51  MOL       C5             -4.4497536523        2.6495847185       17.2687960585  SYS             51   0.00000
      1806        51  MOL       H6             -5.4596886065        3.7764964641       15.9235589541  SYS             51   0.00000
      1807        51  MOL       C7             -2.2464959493        1.8980615575       16.5055110557  SYS             51   0.00000
      1808        51  MOL       C8             -1.4411670467        2.5696338230       14.2775060290  SYS             51   0.00000
      1809        51  MOL       C9             -2.8558490157        3.9788881846       12.8324655448  SYS             51   0.00000
      1810        51  MOL       H10            -4.6452620360        4.4565053895       13.7053936972  SYS             51   0.00000
      1811        51  MOL       C11            -5.4339841246        2.6664321140       18.3061889353  SYS             51   0.00000
      1812        51  MOL       C12            -3.2190740384        1.9252677907       17.4951107647  SYS             51   0.00000
      1813        51  MOL       H13            -1.4453015644        1.4105389502       16.6573246474  SYS             51   0.00000
      1814        51  MOL       H14            -0.6275151056        2.0971603165       14.4082343997  SYS             51   0.00000
      1815        51  MOL       C15            -1.6117521322        3.2497391129       13.0644029766  SYS             51   0.00000
      1816        51  MOL       C16            -3.0262811922        4.6556041486       11.6081170412  SYS             51   0.00000
      1817        51  MOL       C17            -5.2227841855        2.0228955861       19.4785272269  SYS             51   0.00000
      1818        51  MOL       H18            -6.2486849359        3.1352913085       18.1698378390  SYS             51   0.00000
      1819        51  MOL       C19            -3.0472597887        1.2654153507       18.7489785778  SYS             51   0.00000
      1820        51  MOL       C20            -0.6273889614        3.2448301963       12.0452839581  SYS             51   0.00000
      1821        51  MOL       C21            -2.0537031032        4.6283979154       10.6185173322  SYS             51   0.00000
      1822        51  MOL       H22            -3.8274755771        5.1431267559       11.4563034495  SYS             51   0.00000
      1823        51  MOL       C23            -4.0049266370        1.3084483403       19.7076532959  SYS             51   0.00000
      1824        51  MOL       H24            -5.8892879867        2.0461358126       20.1546599827  SYS             51   0.00000
      1825        51  MOL       H25            -2.2446421649        0.7842410148       18.9148489836  SYS             51   0.00000
      1826        51  MOL       H26             0.1869114650        2.7771692420       12.1900691428  SYS             51   0.00000
      1827        51  MOL       C27            -0.8230234893        3.9040809875       10.8448320384  SYS             51   0.00000
      1828        51  MOL       C28            -2.2255173528        5.2882503553        9.3646495191  SYS             51   0.00000
      1829        51  MOL       H29            -3.8665131667        0.8633624500       20.5355996434  SYS             51   0.00000
      1830        51  MOL       C30             0.1612069830        3.8872335920        9.8074391616  SYS             51   0.00000
      1831        51  MOL       C31            -1.2678505046        5.2452173658        8.4059748010  SYS             51   0.00000
      1832        51  MOL       H32            -3.0281349766        5.7694246913        9.1987791133  SYS             51   0.00000
      1833        51  MOL       C33            -0.0499929560        4.5307701199        8.6351008700  SYS             51   0.00000
      1834        51  MOL       H34             0.9759077944        3.4183743976        9.9437902579  SYS             51   0.00000
      1835        51  MOL       H35            -1.4062639748        5.6903032560        7.5780284535  SYS             51   0.00000
      1836        51  MOL       H36             0.6165108452        4.5075298934        7.9589681142  SYS             51   0.00000
      1837        52  MOL       C1             -0.1395148770       18.6069315394       13.0644029766  SYS             52   0.00000
      1838        52  MOL       C2              0.8448482938       18.6020226228       12.0452839581  SYS             52   0.00000
      1839        52  MOL       C3             -1.3836117605       19.3360806110       12.8324655448  SYS             52   0.00000
      1840        52  MOL       C4              0.0310702085       17.9268262494       14.2775060290  SYS             52   0.00000
      1841        52  MOL       C5              0.6492137659       19.2612734140       10.8448320384  SYS             52   0.00000
      1842        52  MOL       H6              1.6591487202       18.1343616685       12.1900691428  SYS             52   0.00000
      1843        52  MOL       C7             -1.5540439370       20.0127965751       11.6081170412  SYS             52   0.00000
      1844        52  MOL       C8             -2.3593728396       19.3412243096       13.8361220679  SYS             52   0.00000
      1845        52  MOL       C9             -0.9446908706       17.9319699480       15.2811625521  SYS             52   0.00000
      1846        52  MOL       H10             0.8447221497       17.4543527430       14.4082343997  SYS             52   0.00000
      1847        52  MOL       C11             1.6334442382       19.2444260185        9.8074391616  SYS             52   0.00000
      1848        52  MOL       C12            -0.5814658480       19.9855903419       10.6185173322  SYS             52   0.00000
      1849        52  MOL       H13            -2.3552383219       20.5003191824       11.4563034495  SYS             52   0.00000
      1850        52  MOL       H14            -3.1730247808       19.8136978160       13.7053936972  SYS             52   0.00000
      1851        52  MOL       C15            -2.1887877542       18.6611190197       15.0492251203  SYS             52   0.00000
      1852        52  MOL       C16            -0.7742586941       17.2552539840       16.5055110557  SYS             52   0.00000
      1853        52  MOL       C17             1.4222442992       19.8879625464        8.6351008700  SYS             52   0.00000
      1854        52  MOL       H18             2.4481450496       18.7755668241        9.9437902579  SYS             52   0.00000
      1855        52  MOL       C19            -0.7532800976       20.6454427818        9.3646495191  SYS             52   0.00000
      1856        52  MOL       C20            -3.1731509249       18.6660279363       16.0683441388  SYS             52   0.00000
      1857        52  MOL       C21            -1.7468367831       17.2824602172       17.4951107647  SYS             52   0.00000
      1858        52  MOL       H22             0.0269356908       16.7677313767       16.6573246474  SYS             52   0.00000
      1859        52  MOL       C23             0.2043867506       20.6024097923        8.4059748010  SYS             52   0.00000
      1860        52  MOL       H24             2.0887481004       19.8647223199        7.9589681142  SYS             52   0.00000
      1861        52  MOL       H25            -1.5558977214       21.1266171178        9.1987791133  SYS             52   0.00000
      1862        52  MOL       H26            -3.9874513513       19.1336888906       15.9235589541  SYS             52   0.00000
      1863        52  MOL       C27            -2.9775163970       18.0067771450       17.2687960585  SYS             52   0.00000
      1864        52  MOL       C28            -1.5750225335       16.6226077772       18.7489785778  SYS             52   0.00000
      1865        52  MOL       H29             0.0659732804       21.0474956825        7.5780284535  SYS             52   0.00000
      1866        52  MOL       C30            -3.9617468694       18.0236245405       18.3061889353  SYS             52   0.00000
      1867        52  MOL       C31            -2.5326893818       16.6656407668       19.7076532959  SYS             52   0.00000
      1868        52  MOL       H32            -0.7724049097       16.1414334413       18.9148489836  SYS             52   0.00000
      1869        52  MOL       C33            -3.7505469303       17.3800880126       19.4785272269  SYS             52   0.00000
      1870        52  MOL       H34            -4.7764476807       18.4924837350       18.1698378390  SYS             52   0.00000
      1871        52  MOL       H35            -2.3942759115       16.2205548765       20.5355996434  SYS             52   0.00000
      1872        52  MOL       H36            -4.4170507315       17.4033282391       20.1546599827  SYS             52   0.00000
      1873        53  MOL       C1              0.3617465523       21.8837643924       27.1212170251  SYS             53   0.00000
      1874        53  MOL       C2              1.3461097231       21.8788554758       26.1020980066  SYS             53   0.00000
      1875        53  MOL       C3             -0.8823503313       22.6129134641       26.8892795933  SYS             53   0.00000
      1876        53  MOL       C4              0.5323316377       21.2036591025       28.3343200775  SYS             53   0.00000
      1877        53  MOL       C5              1.1504751952       22.5381062671       24.9016460868  SYS             53   0.00000
      1878        53  MOL       H6              2.1604101494       21.4111945215       26.2468831913  SYS             53   0.00000
      1879        53  MOL       C7             -1.0527825078       23.2896294281       25.6649310897  SYS             53   0.00000
      1880        53  MOL       C8             -1.8581114104       22.6180571626       27.8929361164  SYS             53   0.00000
      1881        53  MOL       C9             -0.4434294414       21.2088028010       29.3379766005  SYS             53   0.00000
      1882        53  MOL       H10             1.3459835789       20.7311855960       28.4650484481  SYS             53   0.00000
      1883        53  MOL       C11             2.1347056675       22.5212588715       23.8642532101  SYS             53   0.00000
      1884        53  MOL       C12            -0.0802044187       23.2624231949       24.6753313807  SYS             53   0.00000
      1885        53  MOL       H13            -1.8539768926       23.7771520354       25.5131174979  SYS             53   0.00000
      1886        53  MOL       H14            -2.6717633515       23.0905306691       27.7622077457  SYS             53   0.00000
      1887        53  MOL       C15            -1.6875263249       21.9379518727       29.1060391687  SYS             53   0.00000
      1888        53  MOL       C16            -0.2729972649       20.5320868370       30.5623251042  SYS             53   0.00000
      1889        53  MOL       C17             1.9235057284       23.1647953995       22.6919149184  SYS             53   0.00000
      1890        53  MOL       H18             2.9494064788       22.0523996771       24.0006043063  SYS             53   0.00000
      1891        53  MOL       C19            -0.2520186684       23.9222756348       23.4214635675  SYS             53   0.00000
      1892        53  MOL       C20            -2.6718894957       21.9428607893       30.1251581872  SYS             53   0.00000
      1893        53  MOL       C21            -1.2455753539       20.5592930702       31.5519248132  SYS             53   0.00000
      1894        53  MOL       H22             0.5281971200       20.0445642297       30.7141386959  SYS             53   0.00000
      1895        53  MOL       C23             0.7056481799       23.8792426453       22.4627888494  SYS             53   0.00000
      1896        53  MOL       H24             2.5900095296       23.1415551730       22.0157821627  SYS             53   0.00000
      1897        53  MOL       H25            -1.0546362922       24.4034499708       23.2555931618  SYS             53   0.00000
      1898        53  MOL       H26            -3.4861899221       22.4105217436       29.9803730025  SYS             53   0.00000
      1899        53  MOL       C27            -2.4762549678       21.2836099981       31.3256101070  SYS             53   0.00000
      1900        53  MOL       C28            -1.0737611043       19.8994406303       32.8057926263  SYS             53   0.00000
      1901        53  MOL       H29             0.5672347096       24.3243285356       21.6348425020  SYS             53   0.00000
      1902        53  MOL       C30            -3.4604854401       21.3004573936       32.3630029838  SYS             53   0.00000
      1903        53  MOL       C31            -2.0314279525       19.9424736198       33.7644673444  SYS             53   0.00000
      1904        53  MOL       H32            -0.2711434805       19.4182662943       32.9716630321  SYS             53   0.00000
      1905        53  MOL       C33            -3.2492855011       20.6569208656       33.5353412754  SYS             53   0.00000
      1906        53  MOL       H34            -4.2751862515       21.7693165880       32.2266518875  SYS             53   0.00000
      1907        53  MOL       H35            -1.8930144823       19.4973877295       34.5924136918  SYS             53   0.00000
      1908        53  MOL       H36            -3.9157893023       20.6801610921       34.2114740311  SYS             53   0.00000
      1909        54  MOL       C1             -1.1862648957       25.2147847257       43.1628532172  SYS             54   0.00000
      1910        54  MOL       C2             -2.1706280665       25.2196936423       44.1819722357  SYS             54   0.00000
      1911        54  MOL       C3              0.0578319879       24.4856356541       43.3947906490  SYS             54   0.00000
      1912        54  MOL       C4             -1.3568499811       25.8948900157       41.9497501648  SYS             54   0.00000
      1913        54  MOL       C5             -1.9749935386       24.5604428511       45.3824241554  SYS             54   0.00000
      1914        54  MOL       H6             -2.9849284928       25.6873545967       44.0371870510  SYS             54   0.00000
      1915        54  MOL       C7              0.2282641643       23.8089196900       44.6191391526  SYS             54   0.00000
      1916        54  MOL       C8              1.0335930669       24.4804919555       42.3911341259  SYS             54   0.00000
      1917        54  MOL       C9             -0.3810889021       25.8897463171       40.9460936417  SYS             54   0.00000
      1918        54  MOL       H10            -2.1705019223       26.3673635221       41.8190217942  SYS             54   0.00000
      1919        54  MOL       C11            -2.9592240109       24.5772902466       46.4198170322  SYS             54   0.00000
      1920        54  MOL       C12            -0.7443139247       23.8361259232       45.6087388616  SYS             54   0.00000
      1921        54  MOL       H13             1.0294585492       23.3213970827       44.7709527443  SYS             54   0.00000
      1922        54  MOL       H14             1.8472450081       24.0080184491       42.5218624966  SYS             54   0.00000
      1923        54  MOL       C15             0.8630079815       25.1605972454       41.1780310735  SYS             54   0.00000
      1924        54  MOL       C16            -0.5515210785       26.5664622811       39.7217451381  SYS             54   0.00000
      1925        54  MOL       C17            -2.7480240718       23.9337537187       47.5921553239  SYS             54   0.00000
      1926        54  MOL       H18            -3.7739248222       25.0461494410       46.2834659359  SYS             54   0.00000
      1927        54  MOL       C19            -0.5724996750       23.1762734833       46.8626066747  SYS             54   0.00000
      1928        54  MOL       C20             1.8473711523       25.1556883288       40.1589120550  SYS             54   0.00000
      1929        54  MOL       C21             0.4210570105       26.5392560479       38.7321454291  SYS             54   0.00000
      1930        54  MOL       H22            -1.3527154634       27.0539848884       39.5699315464  SYS             54   0.00000
      1931        54  MOL       C23            -1.5301665233       23.2193064729       47.8212813928  SYS             54   0.00000
      1932        54  MOL       H24            -3.4145278731       23.9569939452       48.2682880796  SYS             54   0.00000
      1933        54  MOL       H25             0.2301179488       22.6950991473       47.0284770805  SYS             54   0.00000
      1934        54  MOL       H26             2.6616715786       24.6880273745       40.3036972397  SYS             54   0.00000
      1935        54  MOL       C27             1.6517366244       25.8149391201       38.9584601353  SYS             54   0.00000
      1936        54  MOL       C28             0.2492427608       27.1991084879       37.4782776160  SYS             54   0.00000
      1937        54  MOL       H29            -1.3917530531       22.7742205826       48.6492277403  SYS             54   0.00000
      1938        54  MOL       C30             2.6359670967       25.7980917246       37.9210672585  SYS             54   0.00000
      1939        54  MOL       C31             1.2069096091       27.1560754983       36.5196028979  SYS             54   0.00000
      1940        54  MOL       H32            -0.5533748629       27.6802828239       37.3124072102  SYS             54   0.00000
      1941        54  MOL       C33             2.4247671576       26.4416282525       36.7487289669  SYS             54   0.00000
      1942        54  MOL       H34             3.4506679080       25.3292325301       38.0574183548  SYS             54   0.00000
      1943        54  MOL       H35             1.0684961389       27.6011613886       35.6916565504  SYS             54   0.00000
      1944        54  MOL       H36             3.0912709589       26.4183880260       36.0725962111  SYS             54   0.00000
       18.8259000000       23.1414000000       43.3272000000       76.7520000000       88.0110000000       84.5240000000
