default_name
 60984
  14.9580000  37.0590000  47.1490000  14.8020000  37.1790000  45.7570000
  13.9770000  36.5020000  47.9790000  16.1890000  37.5470000  47.7530000
  14.0000000  36.8610000  45.3560000  15.7780000  37.7440000  44.9470000
  13.1640000  36.1850000  47.6070000  14.1560000  36.4000000  49.3670000
  17.1810000  38.1190000  46.9210000  16.3680000  37.4450000  49.1400000
  17.0020000  38.2200000  45.5460000  15.6140000  37.8690000  43.5250000
  13.1650000  35.8280000  50.1990000  15.3870000  36.8880000  49.9710000
  17.9860000  38.4400000  47.3100000  17.1820000  37.7620000  49.5130000
  17.9980000  38.8060000  44.6830000  14.8140000  37.5630000  43.1130000
  16.5930000  38.4200000  42.7630000  13.3430000  35.7270000  51.5740000
  12.3590000  35.5070000  49.8100000  15.5440000  36.7680000  51.3630000
  17.8000000  38.9030000  43.3480000  18.8080000  39.1300000  45.0580000
  16.4720000  38.4850000  41.8220000  12.3470000  35.1410000  52.4370000
  14.5680000  36.2030000  52.1730000  16.3450000  37.0860000  51.7630000
  18.4690000  39.2950000  42.7980000  12.5450000  35.0440000  53.7720000
  11.5370000  34.8170000  52.0610000  14.7320000  36.0780000  53.5950000
  13.7530000  35.5270000  54.3570000  11.8770000  34.6520000  54.3220000
  15.5310000  36.3840000  54.0070000  13.8740000  35.4620000  55.2970000
  16.3990000  57.9430000   4.9780000  16.2420000  58.0620000   3.5870000
  15.4180000  57.3860000   5.8090000  17.6300000  58.4310000   5.5830000
  15.4410000  57.7450000   3.1860000  17.2180000  58.6280000   2.7770000
  14.6040000  57.0680000   5.4360000  15.5970000  57.2840000   7.1960000
  18.6220000  59.0030000   4.7500000  17.8090000  58.3290000   6.9700000
  18.4430000  59.1040000   3.3760000  17.0550000  58.7530000   1.3540000
  14.6050000  56.7120000   8.0280000  16.8280000  57.7720000   7.8010000
  19.4270000  59.3240000   5.1400000  18.6230000  58.6460000   7.3430000
  19.4390000  59.6890000   2.5130000  16.2550000  58.4470000   0.9420000
  18.0340000  59.3040000   0.5920000  14.7840000  56.6110000   9.4030000
  13.8000000  56.3910000   7.6390000  16.9840000  57.6520000   9.1920000
  19.2410000  59.7870000   1.1770000  20.2490000  60.0130000   2.8880000
  17.9120000  59.3690000  -0.3480000  13.7880000  56.0250000  10.2660000
  16.0080000  57.0870000  10.0020000  17.7860000  57.9700000   9.5930000
  19.9090000  60.1780000   0.6280000  13.9860000  55.9280000  11.6020000
  12.9780000  55.7010000   9.8910000  16.1720000  56.9620000  11.4250000
  15.1930000  56.4110000  12.1860000  13.3170000  55.5360000  12.1510000
  16.9720000  57.2680000  11.8360000  15.3140000  56.3460000  13.1270000
  18.8740000  79.8540000  33.0920000  18.7170000  79.9730000  31.7000000
  17.8920000  79.2970000  33.9230000  20.1040000  80.3420000  33.6960000
  17.9160000  79.6560000  31.3000000  19.6930000  80.5390000  30.8900000
  17.0790000  78.9790000  33.5500000  18.0720000  79.1950000  35.3100000
  21.0960000  80.9130000  32.8640000  20.2840000  80.2400000  35.0840000
  20.9180000  81.0140000  31.4890000  19.5290000  80.6640000  29.4680000
  17.0800000  78.6230000  36.1420000  19.3030000  79.6830000  35.9140000
  21.9020000  81.2350000  33.2530000  21.0970000  80.5570000  35.4560000
  21.9140000  81.6000000  30.6260000  18.7300000  80.3570000  29.0560000
  20.5080000  81.2150000  28.7060000  17.2590000  78.5220000  37.5170000
  16.2750000  78.3020000  35.7530000  19.4590000  79.5630000  37.3060000
  21.7160000  81.6980000  29.2910000  22.7240000  81.9240000  31.0020000
  20.3870000  81.2800000  27.7660000  16.2630000  77.9360000  38.3800000
  18.4830000  78.9980000  38.1160000  20.2600000  79.8810000  37.7070000
  22.3840000  82.0890000  28.7410000  16.4610000  77.8390000  39.7150000
  15.4530000  77.6120000  38.0050000  18.6470000  78.8730000  39.5380000
  17.6680000  78.3210000  40.3000000  15.7920000  77.4470000  40.2650000
  19.4470000  79.1790000  39.9500000  17.7890000  78.2570000  41.2410000
  19.3750000  83.1310000  47.1490000  19.2180000  83.2500000  45.7570000
  18.3940000  82.5730000  47.9790000  20.6060000  83.6190000  47.7530000
  18.4170000  82.9320000  45.3560000  20.1940000  83.8150000  44.9470000
  17.5800000  82.2560000  47.6070000  18.5730000  82.4710000  49.3670000
  21.5980000  84.1900000  46.9210000  20.7850000  83.5170000  49.1400000
  21.4190000  84.2910000  45.5460000  20.0310000  83.9410000  43.5250000
  17.5810000  81.9000000  50.1990000  19.8040000  82.9590000  49.9710000
  22.4030000  84.5110000  47.3100000  21.5990000  83.8340000  49.5130000
  22.4150000  84.8770000  44.6830000  19.2310000  83.6340000  43.1130000
  21.0100000  84.4920000  42.7630000  17.7600000  81.7990000  51.5740000
  16.7760000  81.5790000  49.8100000  19.9600000  82.8400000  51.3630000
  22.2170000  84.9740000  43.3480000  23.2250000  85.2010000  45.0580000
  20.8880000  84.5570000  41.8220000  16.7640000  81.2130000  52.4370000
  18.9840000  82.2750000  52.1730000  20.7620000  83.1580000  51.7630000
  22.8850000  85.3660000  42.7980000  16.9620000  81.1160000  53.7720000
  15.9540000  80.8890000  52.0610000  19.1480000  82.1490000  53.5950000
  18.1690000  81.5980000  54.3570000  16.2930000  80.7240000  54.3220000
  19.9480000  82.4560000  54.0070000  18.2900000  81.5330000  55.2970000
  19.8760000  86.4080000  61.2050000  19.7200000  86.5270000  59.8140000
  18.8950000  85.8500000  62.0360000  21.1070000  86.8950000  61.8100000
  18.9180000  86.2090000  59.4130000  20.6960000  87.0920000  59.0040000
  18.0820000  85.5330000  61.6640000  19.0740000  85.7480000  63.4240000
  22.0990000  87.4670000  60.9780000  21.2860000  86.7940000  63.1970000
  21.9200000  87.5680000  59.6030000  20.5320000  87.2170000  57.5820000
  18.0820000  85.1770000  64.2560000  20.3050000  86.2360000  64.0280000
  22.9040000  87.7880000  61.3670000  22.1000000  87.1110000  63.5700000
  22.9160000  88.1540000  58.7400000  19.7320000  86.9110000  57.1700000
  21.5110000  87.7690000  56.8200000  18.2610000  85.0760000  65.6300000
  17.2770000  84.8560000  63.8660000  20.4620000  86.1170000  65.4200000
  22.7180000  88.2510000  57.4040000  23.7260000  88.4780000  59.1150000
  21.3900000  87.8330000  55.8790000  17.2650000  84.4900000  66.4940000
  19.4860000  85.5520000  66.2290000  21.2630000  86.4340000  65.8200000
  23.3870000  88.6430000  56.8550000  17.4630000  84.3930000  67.8290000
  16.4550000  84.1660000  66.1180000  19.6500000  85.4260000  67.6520000
  18.6710000  84.8750000  68.4140000  16.7950000  84.0010000  68.3790000
  20.4490000  85.7330000  68.0640000  18.7920000  84.8100000  69.3540000
  20.1110000  90.8090000  47.1490000  19.9550000  90.9290000  45.7570000
  19.1300000  90.2520000  47.9790000  21.3420000  91.2970000  47.7530000
  19.1530000  90.6110000  45.3560000  20.9310000  91.4940000  44.9470000
  18.3160000  89.9350000  47.6070000  19.3090000  90.1500000  49.3670000
  22.3340000  91.8690000  46.9210000  21.5210000  91.1950000  49.1400000
  22.1550000  91.9700000  45.5460000  20.7670000  91.6190000  43.5250000
  18.3170000  89.5780000  50.1990000  20.5400000  90.6380000  49.9710000
  23.1390000  92.1900000  47.3100000  22.3350000  91.5120000  49.5130000
  23.1510000  92.5560000  44.6830000  19.9670000  91.3130000  43.1130000
  21.7460000  92.1700000  42.7630000  18.4960000  89.4770000  51.5740000
  17.5120000  89.2570000  49.8100000  20.6960000  90.5190000  51.3630000
  22.9530000  92.6530000  43.3480000  23.9610000  92.8800000  45.0580000
  21.6250000  92.2350000  41.8220000  17.5000000  88.8920000  52.4370000
  19.7210000  89.9530000  52.1730000  21.4980000  90.8360000  51.7630000
  23.6220000  93.0450000  42.7980000  17.6980000  88.7940000  53.7720000
  16.6900000  88.5680000  52.0610000  19.8840000  89.8280000  53.5950000
  18.9050000  89.2770000  54.3570000  17.0300000  88.4030000  54.3220000
  20.6840000  90.1340000  54.0070000  19.0270000  89.2120000  55.2970000
  12.2490000  10.7460000  33.0920000  12.0920000  10.8660000  31.7000000
  11.2670000  10.1890000  33.9230000  13.4790000  11.2340000  33.6960000
  11.2910000  10.5480000  31.3000000  13.0680000  11.4310000  30.8900000
  10.4540000   9.8720000  33.5500000  11.4470000  10.0870000  35.3100000
  14.4710000  11.8060000  32.8640000  13.6590000  11.1320000  35.0840000
  14.2930000  11.9070000  31.4890000  12.9040000  11.5560000  29.4680000
  10.4550000   9.5160000  36.1420000  12.6780000  10.5750000  35.9140000
  15.2770000  12.1270000  33.2530000  14.4720000  11.4500000  35.4560000
  15.2890000  12.4930000  30.6260000  12.1040000  11.2500000  29.0560000
  13.8830000  12.1080000  28.7060000  10.6340000   9.4150000  37.5170000
   9.6500000   9.1950000  35.7530000  12.8340000  10.4560000  37.3060000
  15.0910000  12.5900000  29.2910000  16.0980000  12.8170000  31.0020000
  13.7620000  12.1720000  27.7660000   9.6380000   8.8290000  38.3800000
  11.8580000   9.8900000  38.1160000  13.6350000  10.7730000  37.7070000
  15.7590000  12.9820000  28.7410000   9.8360000   8.7320000  39.7150000
   8.8280000   8.5050000  38.0050000  12.0220000   9.7650000  39.5380000
  11.0430000   9.2140000  40.3000000   9.1670000   8.3400000  40.2650000
  12.8220000  10.0720000  39.9500000  11.1640000   9.1490000  41.2410000
  11.2460000   4.1930000   4.9780000  11.0900000   4.3120000   3.5870000
  10.2650000   3.6360000   5.8090000  12.4770000   4.6810000   5.5830000
  10.2880000   3.9950000   3.1860000  12.0660000   4.8780000   2.7770000
   9.4510000   3.3180000   5.4360000  10.4440000   3.5340000   7.1960000
  13.4690000   5.2520000   4.7500000  12.6560000   4.5790000   6.9700000
  13.2900000   5.3530000   3.3760000  11.9020000   5.0030000   1.3540000
   9.4520000   2.9620000   8.0280000  11.6750000   4.0220000   7.8010000
  14.2740000   5.5730000   5.1400000  13.4700000   4.8960000   7.3430000
  14.2860000   5.9390000   2.5130000  11.1020000   4.6960000   0.9420000
  12.8810000   5.5540000   0.5920000   9.6310000   2.8610000   9.4030000
   8.6470000   2.6410000   7.6390000  11.8320000   3.9020000   9.1920000
  14.0880000   6.0370000   1.1770000  15.0960000   6.2630000   2.8880000
  12.7600000   5.6190000  -0.3480000   8.6350000   2.2750000  10.2660000
  10.8560000   3.3370000  10.0020000  12.6330000   4.2200000   9.5930000
  14.7570000   6.4280000   0.6280000   8.8330000   2.1780000  11.6020000
   7.8250000   1.9510000   9.8910000  11.0190000   3.2120000  11.4250000
  10.0400000   2.6600000  12.1860000   8.1650000   1.7860000  12.1510000
  11.8190000   3.5180000  11.8360000  10.1620000   2.5960000  13.1270000
  14.1810000  20.4060000  78.0850000  14.3380000  20.2860000  79.4760000
  15.1630000  20.9630000  77.2540000  12.9510000  19.9180000  77.4800000
  15.1390000  20.6040000  79.8770000  13.3620000  19.7210000  80.2860000
  15.9760000  21.2800000  77.6270000  14.9830000  21.0650000  75.8670000
  11.9590000  19.3460000  78.3130000  12.7710000  20.0200000  76.0930000
  12.1370000  19.2450000  79.6870000  13.5260000  19.5960000  81.7090000
  15.9750000  21.6370000  75.0350000  13.7520000  20.5770000  75.2620000
  11.1530000  19.0250000  77.9230000  11.9580000  19.7020000  75.7200000
  11.1410000  18.6590000  80.5500000  14.3260000  19.9020000  82.1210000
  12.5470000  19.0450000  82.4710000  15.7960000  21.7380000  73.6600000
  16.7800000  21.9580000  75.4240000  13.5960000  20.6960000  73.8710000
  11.3390000  18.5620000  81.8860000  10.3320000  18.3350000  80.1750000
  12.6680000  18.9800000  83.4110000  16.7920000  22.3230000  72.7970000
  14.5720000  21.2620000  73.0610000  12.7950000  20.3790000  73.4700000
  10.6710000  18.1700000  82.4350000  16.5940000  22.4210000  71.4610000
  17.6020000  22.6470000  73.1720000  14.4080000  21.3870000  71.6380000
  15.3870000  21.9380000  70.8770000  17.2630000  22.8120000  70.9120000
  13.6080000  21.0810000  71.2270000  15.2660000  22.0030000  69.9360000
  12.7500000  14.0230000  47.1490000  12.5930000  14.1430000  45.7570000
  11.7690000  13.4660000  47.9790000  13.9810000  14.5110000  47.7530000
  11.7920000  13.8250000  45.3560000  13.5690000  14.7080000  44.9470000
  10.9550000  13.1490000  47.6070000  11.9480000  13.3640000  49.3670000
  14.9730000  15.0830000  46.9210000  14.1600000  14.4090000  49.1400000
  14.7940000  15.1840000  45.5460000  13.4060000  14.8330000  43.5250000
  10.9560000  12.7920000  50.1990000  13.1790000  13.8520000  49.9710000
  15.7780000  15.4040000  47.3100000  14.9740000  14.7270000  49.5130000
  15.7900000  15.7700000  44.6830000  12.6060000  14.5270000  43.1130000
  14.3840000  15.3840000  42.7630000  11.1350000  12.6910000  51.5740000
  10.1510000  12.4710000  49.8100000  13.3350000  13.7330000  51.3630000
  15.5920000  15.8670000  43.3480000  16.6000000  16.0940000  45.0580000
  14.2630000  15.4490000  41.8220000  10.1390000  12.1060000  52.4370000
  12.3590000  13.1670000  52.1730000  14.1370000  14.0500000  51.7630000
  16.2600000  16.2590000  42.7980000  10.3370000  12.0080000  53.7720000
   9.3290000  11.7820000  52.0610000  12.5230000  13.0420000  53.5950000
  11.5440000  12.4910000  54.3570000   9.6680000  11.6170000  54.3220000
  13.3230000  13.3480000  54.0070000  11.6650000  12.4260000  55.2970000
  12.4830000  15.1480000  19.0350000  12.3270000  15.2680000  17.6430000
  11.5020000  14.5910000  19.8660000  13.7140000  15.6360000  19.6390000
  11.5260000  14.9500000  17.2430000  13.3030000  15.8330000  16.8340000
  10.6890000  14.2740000  19.4930000  11.6820000  14.4890000  21.2530000
  14.7060000  16.2080000  18.8070000  13.8940000  15.5340000  21.0270000
  14.5270000  16.3090000  17.4320000  13.1390000  15.9580000  15.4110000
  10.6900000  13.9170000  22.0850000  12.9120000  14.9770000  21.8580000
  15.5110000  16.5290000  19.1970000  14.7070000  15.8510000  21.3990000
  15.5230000  16.8950000  16.5690000  12.3390000  15.6520000  14.9990000
  14.1180000  16.5090000  14.6490000  10.8680000  13.8160000  23.4600000
   9.8840000  13.5960000  21.6960000  13.0690000  14.8580000  23.2490000
  15.3260000  16.9920000  15.2340000  16.3330000  17.2190000  16.9450000
  13.9970000  16.5740000  13.7090000   9.8720000  13.2300000  24.3230000
  12.0930000  14.2920000  24.0590000  13.8700000  15.1750000  23.6500000
  15.9940000  17.3840000  14.6840000  10.0700000  13.1330000  25.6590000
   9.0630000  12.9060000  23.9480000  12.2570000  14.1670000  25.4810000
  11.2780000  13.6160000  26.2430000   9.4020000  12.7420000  26.2080000
  13.0570000  14.4730000  25.8930000  11.3990000  13.5510000  27.1840000
  12.9850000  18.4250000  33.0920000  12.8280000  18.5450000  31.7000000
  12.0040000  17.8680000  33.9230000  14.2160000  18.9130000  33.6960000
  12.0270000  18.2270000  31.3000000  13.8040000  19.1100000  30.8900000
  11.1900000  17.5510000  33.5500000  12.1830000  17.7660000  35.3100000
  15.2070000  19.4850000  32.8640000  14.3950000  18.8110000  35.0840000
  15.0290000  19.5860000  31.4890000  13.6400000  19.2350000  29.4680000
  11.1910000  17.1940000  36.1420000  13.4140000  18.2540000  35.9140000
  16.0130000  19.8060000  33.2530000  15.2080000  19.1280000  35.4560000
  16.0250000  20.1720000  30.6260000  12.8410000  18.9290000  29.0560000
  14.6190000  19.7860000  28.7060000  11.3700000  17.0930000  37.5170000
  10.3860000  16.8730000  35.7530000  13.5700000  18.1340000  37.3060000
  15.8270000  20.2690000  29.2910000  16.8350000  20.4960000  31.0020000
  14.4980000  19.8510000  27.7660000  10.3740000  16.5070000  38.3800000
  12.5940000  17.5690000  38.1160000  14.3720000  18.4520000  37.7070000
  16.4950000  20.6600000  28.7410000  10.5720000  16.4100000  39.7150000
   9.5640000  16.1830000  38.0050000  12.7580000  17.4440000  39.5380000
  11.7790000  16.8930000  40.3000000   9.9030000  16.0180000  40.2650000
  13.5580000  17.7500000  39.9500000  11.9000000  16.8280000  41.2410000
  13.4860000  21.7020000  47.1490000  13.3300000  21.8210000  45.7570000
  12.5050000  21.1450000  47.9790000  14.7170000  22.1900000  47.7530000
  12.5280000  21.5040000  45.3560000  14.3050000  22.3870000  44.9470000
  11.6910000  20.8270000  47.6070000  12.6840000  21.0430000  49.3670000
  15.7090000  22.7610000  46.9210000  14.8960000  22.0880000  49.1400000
  15.5300000  22.8630000  45.5460000  14.1420000  22.5120000  43.5250000
  11.6920000  20.4710000  50.1990000  13.9150000  21.5310000  49.9710000
  16.5140000  23.0830000  47.3100000  15.7100000  22.4050000  49.5130000
  16.5260000  23.4480000  44.6830000  13.3420000  22.2050000  43.1130000
  15.1210000  23.0630000  42.7630000  11.8710000  20.3700000  51.5740000
  10.8870000  20.1500000  49.8100000  14.0710000  21.4110000  51.3630000
  16.3280000  23.5460000  43.3480000  17.3360000  23.7720000  45.0580000
  14.9990000  23.1280000  41.8220000  10.8750000  19.7840000  52.4370000
  13.0960000  20.8460000  52.1730000  14.8730000  21.7290000  51.7630000
  16.9960000  23.9370000  42.7980000  11.0730000  19.6870000  53.7720000
  10.0650000  19.4600000  52.0610000  13.2590000  20.7210000  53.5950000
  12.2800000  20.1700000  54.3570000  10.4040000  19.2950000  54.3220000
  14.0590000  21.0270000  54.0070000  12.4010000  20.1050000  55.2970000
  11.9820000  11.8710000   4.9780000  11.8260000  11.9910000   3.5870000
  11.0010000  11.3140000   5.8090000  13.2130000  12.3590000   5.5830000
  11.0240000  11.6730000   3.1860000  12.8020000  12.5560000   2.7770000
  10.1880000  10.9970000   5.4360000  11.1800000  11.2120000   7.1960000
  14.2050000  12.9310000   4.7500000  13.3920000  12.2570000   6.9700000
  14.0260000  13.0320000   3.3760000  12.6380000  12.6810000   1.3540000
  10.1880000  10.6410000   8.0280000  12.4110000  11.7000000   7.8010000
  15.0100000  13.2520000   5.1400000  14.2060000  12.5750000   7.3430000
  15.0220000  13.6180000   2.5130000  11.8380000  12.3750000   0.9420000
  13.6170000  13.2320000   0.5920000  10.3670000  10.5390000   9.4030000
   9.3830000  10.3190000   7.6390000  12.5680000  11.5810000   9.1920000
  14.8240000  13.7150000   1.1770000  15.8320000  13.9420000   2.8880000
  13.4960000  13.2970000  -0.3480000   9.3710000   9.9540000  10.2660000
  11.5920000  11.0150000  10.0020000  13.3690000  11.8980000   9.5930000
  15.4930000  14.1070000   0.6280000   9.5690000   9.8560000  11.6020000
   8.5610000   9.6300000   9.8910000  11.7560000  10.8900000  11.4250000
  10.7770000  10.3390000  12.1860000   8.9010000   9.4650000  12.1510000
  12.5550000  11.1970000  11.8360000  10.8980000  10.2740000  13.1270000
  14.9180000  28.0840000  78.0850000  15.0740000  27.9650000  79.4760000
  15.8990000  28.6420000  77.2540000  13.6870000  27.5960000  77.4800000
  15.8750000  28.2820000  79.8770000  14.0980000  27.4000000  80.2860000
  16.7120000  28.9590000  77.6270000  15.7190000  28.7440000  75.8670000
  12.6950000  27.0250000  78.3130000  13.5070000  27.6980000  76.0930000
  12.8730000  26.9240000  79.6870000  14.2620000  27.2740000  81.7090000
  16.7110000  29.3150000  75.0350000  14.4880000  28.2560000  75.2620000
  11.8890000  26.7040000  77.9230000  12.6940000  27.3810000  75.7200000
  11.8770000  26.3380000  80.5500000  15.0620000  27.5810000  82.1210000
  13.2830000  26.7230000  82.4710000  16.5330000  29.4160000  73.6600000
  17.5170000  29.6360000  75.4240000  14.3320000  28.3750000  73.8710000
  12.0750000  26.2410000  81.8860000  11.0680000  26.0140000  80.1750000
  13.4040000  26.6580000  83.4110000  17.5290000  30.0020000  72.7970000
  15.3080000  28.9400000  73.0610000  13.5310000  28.0570000  73.4700000
  11.4070000  25.8490000  82.4350000  17.3310000  30.0990000  71.4610000
  18.3380000  30.3260000  73.1720000  15.1440000  29.0660000  71.6380000
  16.1230000  29.6170000  70.8770000  17.9990000  30.4910000  70.9120000
  14.3440000  28.7590000  71.2270000  16.0020000  29.6820000  69.9360000
  14.9900000  31.5320000  89.3190000  14.8330000  31.6520000  87.9270000
  14.0090000  30.9750000  90.1500000  16.2210000  32.0200000  89.9230000
  14.0320000  31.3340000  87.5270000  15.8090000  32.2170000  87.1180000
  13.1950000  30.6580000  89.7770000  14.1880000  30.8730000  91.5370000
  17.2120000  32.5920000  89.0910000  16.4000000  31.9180000  91.3110000
  17.0340000  32.6930000  87.7170000  15.6450000  32.3420000  85.6950000
  13.1960000  30.3020000  92.3690000  15.4190000  31.3610000  92.1420000
  18.0180000  32.9130000  89.4810000  17.2130000  32.2360000  91.6830000
  18.0300000  33.2790000  86.8530000  14.8460000  32.0360000  85.2830000
  16.6240000  32.8930000  84.9330000  13.3750000  30.2000000  93.7440000
  12.3910000  29.9800000  91.9800000  15.5750000  31.2420000  93.5330000
  17.8320000  33.3760000  85.5180000  18.8400000  33.6030000  87.2290000
  16.5030000  32.9580000  83.9930000  12.3790000  29.6150000  94.6070000
  14.5990000  30.6760000  94.3430000  16.3770000  31.5590000  93.9340000
  18.5000000  33.7680000  84.9680000  12.5770000  29.5170000  95.9430000
  11.5690000  29.2910000  94.2320000  14.7630000  30.5510000  95.7650000
  13.7840000  30.0000000  96.5270000  11.9080000  29.1260000  96.4920000
  15.5630000  30.8580000  96.1770000  13.9050000  29.9350000  97.4680000
  13.2200000  22.8270000  19.0350000  13.0630000  22.9460000  17.6430000
  12.2380000  22.2700000  19.8660000  14.4500000  23.3150000  19.6390000
  12.2620000  22.6290000  17.2430000  14.0390000  23.5120000  16.8340000
  11.4250000  21.9520000  19.4930000  12.4180000  22.1680000  21.2530000
  15.4420000  23.8860000  18.8070000  14.6300000  23.2130000  21.0270000
  15.2640000  23.9870000  17.4320000  13.8750000  23.6370000  15.4110000
  11.4260000  21.5960000  22.0850000  13.6490000  22.6560000  21.8580000
  16.2480000  24.2080000  19.1970000  15.4430000  23.5300000  21.3990000
  16.2600000  24.5730000  16.5690000  13.0750000  23.3300000  14.9990000
  14.8540000  24.1880000  14.6490000  11.6050000  21.4950000  23.4600000
  10.6210000  21.2750000  21.6960000  13.8050000  22.5360000  23.2490000
  16.0620000  24.6710000  15.2340000  17.0690000  24.8970000  16.9450000
  14.7330000  24.2530000  13.7090000  10.6090000  20.9090000  24.3230000
  12.8290000  21.9710000  24.0590000  14.6060000  22.8540000  23.6500000
  16.7300000  25.0620000  14.6840000  10.8060000  20.8120000  25.6590000
   9.7990000  20.5850000  23.9480000  12.9930000  21.8460000  25.4810000
  12.0140000  21.2940000  26.2430000  10.1380000  20.4200000  26.2080000
  13.7930000  22.1520000  25.8930000  12.1350000  21.2300000  27.1840000
  14.1500000  25.9320000  35.9140000  14.3060000  25.8130000  37.3060000
  15.1310000  26.4900000  35.0840000  12.9190000  25.4440000  35.3100000
  15.1080000  26.1310000  37.7070000  13.3300000  25.2480000  38.1160000
  15.9450000  26.8070000  35.4560000  14.9520000  26.5920000  33.6960000
  11.9270000  24.8730000  36.1420000  12.7400000  25.5460000  33.9230000
  12.1060000  24.7720000  37.5170000  13.4940000  25.1220000  39.5380000
  15.9440000  27.1630000  32.8640000  13.7210000  26.1040000  33.0920000
  11.1220000  24.5520000  35.7530000  11.9260000  25.2290000  33.5500000
  11.1100000  24.1860000  38.3800000  14.2940000  25.4290000  39.9500000
  12.5150000  24.5710000  40.3000000  15.7650000  27.2640000  31.4890000
  16.7490000  27.4840000  33.2530000  13.5640000  26.2230000  31.7000000
  11.3080000  24.0890000  39.7150000  10.3000000  23.8620000  38.0050000
  12.6360000  24.5060000  41.2410000  16.7610000  27.8500000  30.6260000
  14.5400000  26.7880000  30.8900000  12.7630000  25.9050000  31.3000000
  10.6390000  23.6970000  40.2650000  16.5630000  27.9470000  29.2910000
  17.5710000  28.1740000  31.0020000  14.3760000  26.9140000  29.4680000
  15.3550000  27.4650000  28.7060000  17.2310000  28.3390000  28.7410000
  13.5770000  26.6070000  29.0560000  15.2340000  27.5300000  27.7660000
  14.2220000  29.3810000  47.1490000  14.0660000  29.5000000  45.7570000
  13.2410000  28.8230000  47.9790000  15.4530000  29.8680000  47.7530000
  13.2640000  29.1820000  45.3560000  15.0420000  30.0650000  44.9470000
  12.4270000  28.5060000  47.6070000  13.4200000  28.7210000  49.3670000
  16.4450000  30.4400000  46.9210000  15.6320000  29.7670000  49.1400000
  16.2660000  30.5410000  45.5460000  14.8780000  30.1900000  43.5250000
  12.4280000  28.1500000  50.1990000  14.6510000  29.2090000  49.9710000
  17.2500000  30.7610000  47.3100000  16.4460000  30.0840000  49.5130000
  17.2620000  31.1270000  44.6830000  14.0780000  29.8840000  43.1130000
  15.8570000  30.7420000  42.7630000  12.6070000  28.0490000  51.5740000
  11.6230000  27.8290000  49.8100000  14.8080000  29.0900000  51.3630000
  17.0640000  31.2240000  43.3480000  18.0720000  31.4510000  45.0580000
  15.7360000  30.8060000  41.8220000  11.6110000  27.4630000  52.4370000
  13.8320000  28.5250000  52.1730000  15.6090000  29.4070000  51.7630000
  17.7330000  31.6160000  42.7980000  11.8090000  27.3660000  53.7720000
  10.8010000  27.1390000  52.0610000  13.9950000  28.3990000  53.5950000
  13.0160000  27.8480000  54.3570000  11.1410000  26.9740000  54.3220000
  14.7950000  28.7060000  54.0070000  13.1380000  27.7830000  55.2970000
  12.7180000  19.5500000   4.9780000  12.5620000  19.6690000   3.5870000
  11.7370000  18.9930000   5.8090000  13.9490000  20.0380000   5.5830000
  11.7600000  19.3520000   3.1860000  13.5380000  20.2350000   2.7770000
  10.9240000  18.6760000   5.4360000  11.9170000  18.8910000   7.1960000
  14.9410000  20.6100000   4.7500000  14.1280000  19.9360000   6.9700000
  14.7620000  20.7110000   3.3760000  13.3740000  20.3600000   1.3540000
  10.9250000  18.3190000   8.0280000  13.1470000  19.3790000   7.8010000
  15.7460000  20.9310000   5.1400000  14.9420000  20.2530000   7.3430000
  15.7580000  21.2960000   2.5130000  12.5740000  20.0540000   0.9420000
  14.3530000  20.9110000   0.5920000  11.1030000  18.2180000   9.4030000
  10.1190000  17.9980000   7.6390000  13.3040000  19.2590000   9.1920000
  15.5600000  21.3940000   1.1770000  16.5680000  21.6200000   2.8880000
  14.2320000  20.9760000  -0.3480000  10.1070000  17.6320000  10.2660000
  12.3280000  18.6940000  10.0020000  14.1050000  19.5770000   9.5930000
  16.2290000  21.7850000   0.6280000  10.3050000  17.5350000  11.6020000
   9.2970000  17.3080000   9.8910000  12.4920000  18.5690000  11.4250000
  11.5130000  18.0180000  12.1860000   9.6370000  17.1430000  12.1510000
  13.2910000  18.8750000  11.8360000  11.6340000  17.9530000  13.1270000
  15.1520000  32.4860000  64.0280000  15.3090000  32.3670000  65.4200000
  16.1340000  33.0430000  63.1970000  13.9220000  31.9980000  63.4240000
  16.1100000  32.6840000  65.8200000  14.3330000  31.8010000  66.2290000
  16.9470000  33.3610000  63.5700000  15.9540000  33.1450000  61.8100000
  12.9300000  31.4270000  64.2560000  13.7420000  32.1000000  62.0360000
  13.1080000  31.3250000  65.6300000  14.4970000  31.6760000  67.6520000
  16.9460000  33.7170000  60.9780000  14.7230000  32.6570000  61.2050000
  12.1240000  31.1050000  63.8660000  12.9290000  31.7830000  61.6640000
  12.1120000  30.7400000  66.4940000  15.2970000  31.9820000  68.0640000
  13.5180000  31.1250000  68.4140000  16.7670000  33.8180000  59.6030000
  17.7510000  34.0380000  61.3670000  14.5670000  32.7770000  59.8140000
  12.3100000  30.6420000  67.8290000  11.3030000  30.4160000  66.1180000
  13.6390000  31.0600000  69.3540000  17.7630000  34.4040000  58.7400000
  15.5430000  33.3420000  59.0040000  13.7660000  32.4590000  59.4130000
  11.6420000  30.2510000  68.3790000  17.5650000  34.5010000  57.4040000
  18.5730000  34.7280000  59.1150000  15.3790000  33.4670000  57.5820000
  16.3580000  34.0180000  56.8200000  18.2340000  34.8930000  56.8550000
  14.5790000  33.1610000  57.1700000  16.2370000  34.0830000  55.8790000
  14.4570000  33.7820000  33.0920000  14.3000000  33.9020000  31.7000000
  13.4760000  33.2250000  33.9230000  15.6880000  34.2700000  33.6960000
  13.4990000  33.5840000  31.3000000  15.2760000  34.4670000  30.8900000
  12.6620000  32.9080000  33.5500000  13.6550000  33.1230000  35.3100000
  16.6800000  34.8420000  32.8640000  15.8670000  34.1680000  35.0840000
  16.5010000  34.9430000  31.4890000  15.1130000  34.5920000  29.4680000
  12.6630000  32.5510000  36.1420000  14.8860000  33.6110000  35.9140000
  17.4850000  35.1630000  33.2530000  16.6810000  34.4850000  35.4560000
  17.4970000  35.5290000  30.6260000  14.3130000  34.2860000  29.0560000
  16.0920000  35.1430000  28.7060000  12.8420000  32.4500000  37.5170000
  11.8580000  32.2300000  35.7530000  15.0420000  33.4920000  37.3060000
  17.2990000  35.6260000  29.2910000  18.3070000  35.8530000  31.0020000
  15.9700000  35.2080000  27.7660000  11.8460000  31.8640000  38.3800000
  14.0660000  32.9260000  38.1160000  15.8440000  33.8090000  37.7070000
  17.9670000  36.0180000  28.7410000  12.0440000  31.7670000  39.7150000
  11.0360000  31.5410000  38.0050000  14.2300000  32.8010000  39.5380000
  13.2510000  32.2500000  40.3000000  11.3750000  31.3760000  40.2650000
  15.0300000  33.1070000  39.9500000  13.3720000  32.1850000  41.2410000
  13.4540000  27.2290000   4.9780000  13.2980000  27.3480000   3.5870000
  12.4730000  26.6710000   5.8090000  14.6850000  27.7170000   5.5830000
  12.4970000  27.0300000   3.1860000  14.2740000  27.9130000   2.7770000
  11.6600000  26.3540000   5.4360000  12.6530000  26.5690000   7.1960000
  15.6770000  28.2880000   4.7500000  14.8650000  27.6150000   6.9700000
  15.4980000  28.3890000   3.3760000  14.1100000  28.0390000   1.3540000
  11.6610000  25.9980000   8.0280000  13.8830000  27.0570000   7.8010000
  16.4820000  28.6090000   5.1400000  15.6780000  27.9320000   7.3430000
  16.4940000  28.9750000   2.5130000  13.3100000  27.7320000   0.9420000
  15.0890000  28.5900000   0.5920000  11.8390000  25.8970000   9.4030000
  10.8550000  25.6770000   7.6390000  14.0400000  26.9380000   9.1920000
  16.2970000  29.0720000   1.1770000  17.3040000  29.2990000   2.8880000
  14.9680000  28.6550000  -0.3480000  10.8430000  25.3110000  10.2660000
  13.0640000  26.3730000  10.0020000  14.8410000  27.2550000   9.5930000
  16.9650000  29.4640000   0.6280000  11.0410000  25.2140000  11.6020000
  10.0340000  24.9870000   9.8910000  13.2280000  26.2470000  11.4250000
  12.2490000  25.6960000  12.1860000  10.3730000  24.8220000  12.1510000
  14.0280000  26.5540000  11.8360000  12.3700000  25.6310000  13.1270000
  15.9610000  43.6130000  75.2620000  15.8040000  43.7320000  73.8710000
  14.9800000  43.0550000  76.0930000  17.1920000  44.1010000  75.8670000
  15.0030000  43.4150000  73.4700000  16.7800000  44.2970000  73.0610000
  14.1660000  42.7380000  75.7200000  15.1590000  42.9530000  77.4800000
  18.1830000  44.6720000  75.0350000  17.3710000  43.9990000  77.2540000
  18.0050000  44.7730000  73.6600000  16.6160000  44.4230000  71.6380000
  14.1670000  42.3820000  78.3130000  16.3900000  43.4410000  78.0850000
  18.9890000  44.9930000  75.4240000  18.1840000  44.3160000  77.6270000
  19.0010000  45.3590000  72.7970000  15.8170000  44.1160000  71.2270000
  17.5950000  44.9740000  70.8770000  14.3460000  42.2810000  79.6870000
  13.3620000  42.0610000  77.9230000  16.5460000  43.3220000  79.4760000
  18.8030000  45.4560000  71.4610000  19.8110000  45.6830000  73.1720000
  17.4740000  45.0390000  69.9360000  13.3500000  41.6950000  80.5500000
  15.5700000  42.7570000  80.2860000  17.3480000  43.6400000  79.8770000
  19.4710000  45.8480000  70.9120000  13.5480000  41.5980000  81.8860000
  12.5400000  41.3710000  80.1750000  15.7340000  42.6320000  81.7090000
  14.7550000  42.0800000  82.4710000  12.8790000  41.2060000  82.4350000
  16.5340000  42.9380000  82.1210000  14.8760000  42.0160000  83.4110000
  16.4620000  46.8900000  89.3190000  16.3060000  47.0090000  87.9270000
  15.4810000  46.3320000  90.1500000  17.6930000  47.3780000  89.9230000
  15.5040000  46.6910000  87.5270000  17.2810000  47.5740000  87.1180000
  14.6670000  46.0150000  89.7770000  15.6600000  46.2300000  91.5370000
  18.6850000  47.9490000  89.0910000  17.8720000  47.2760000  91.3110000
  18.5060000  48.0500000  87.7170000  17.1180000  47.7000000  85.6950000
  14.6680000  45.6590000  92.3690000  16.8910000  46.7180000  92.1420000
  19.4900000  48.2700000  89.4810000  18.6860000  47.5930000  91.6830000
  19.5020000  48.6360000  86.8530000  16.3180000  47.3930000  85.2830000
  18.0970000  48.2510000  84.9330000  14.8470000  45.5580000  93.7440000
  13.8630000  45.3380000  91.9800000  17.0470000  46.5990000  93.5330000
  19.3040000  48.7330000  85.5180000  20.3120000  48.9600000  87.2290000
  17.9750000  48.3160000  83.9930000  13.8510000  44.9720000  94.6070000
  16.0720000  46.0340000  94.3430000  17.8490000  46.9160000  93.9340000
  19.9730000  49.1250000  84.9680000  14.0490000  44.8750000  95.9430000
  13.0410000  44.6480000  94.2320000  16.2350000  45.9080000  95.7650000
  15.2560000  45.3570000  96.5270000  13.3800000  44.4830000  96.4920000
  17.0350000  46.2150000  96.1770000  15.3780000  45.2920000  97.4680000
  15.1930000  41.4610000  33.0920000  15.0370000  41.5800000  31.7000000
  14.2120000  40.9040000  33.9230000  16.4240000  41.9490000  33.6960000
  14.2350000  41.2630000  31.3000000  16.0130000  42.1460000  30.8900000
  13.3980000  40.5860000  33.5500000  14.3910000  40.8020000  35.3100000
  17.4160000  42.5200000  32.8640000  16.6030000  41.8470000  35.0840000
  17.2370000  42.6210000  31.4890000  15.8490000  42.2710000  29.4680000
  13.3990000  40.2300000  36.1420000  15.6220000  41.2900000  35.9140000
  18.2210000  42.8420000  33.2530000  17.4170000  42.1640000  35.4560000
  18.2330000  43.2070000  30.6260000  15.0490000  41.9640000  29.0560000
  16.8280000  42.8220000  28.7060000  13.5780000  40.1290000  37.5170000
  12.5940000  39.9090000  35.7530000  15.7790000  41.1700000  37.3060000
  18.0350000  43.3050000  29.2910000  19.0430000  43.5310000  31.0020000
  16.7070000  42.8870000  27.7660000  12.5820000  39.5430000  38.3800000
  14.8030000  40.6050000  38.1160000  16.5800000  41.4880000  37.7070000
  18.7040000  43.6960000  28.7410000  12.7800000  39.4460000  39.7150000
  11.7720000  39.2190000  38.0050000  14.9660000  40.4800000  39.5380000
  13.9870000  39.9290000  40.3000000  12.1120000  39.0540000  40.2650000
  15.7660000  40.7860000  39.9500000  14.1090000  39.8640000  41.2410000
  15.6940000  44.7380000  47.1490000  15.5380000  44.8570000  45.7570000
  14.7130000  44.1800000  47.9790000  16.9250000  45.2260000  47.7530000
  14.7370000  44.5400000  45.3560000  16.5140000  45.4220000  44.9470000
  13.9000000  43.8630000  47.6070000  14.8930000  44.0780000  49.3670000
  17.9170000  45.7970000  46.9210000  17.1050000  45.1240000  49.1400000
  17.7380000  45.8980000  45.5460000  16.3500000  45.5480000  43.5250000
  13.9010000  43.5070000  50.1990000  16.1230000  44.5660000  49.9710000
  18.7220000  46.1180000  47.3100000  17.9180000  45.4410000  49.5130000
  18.7340000  46.4840000  44.6830000  15.5500000  45.2410000  43.1130000
  17.3290000  46.0990000  42.7630000  14.0790000  43.4060000  51.5740000
  13.0950000  43.1860000  49.8100000  16.2800000  44.4470000  51.3630000
  18.5360000  46.5810000  43.3480000  19.5440000  46.8080000  45.0580000
  17.2080000  46.1640000  41.8220000  13.0830000  42.8200000  52.4370000
  15.3040000  43.8820000  52.1730000  17.0810000  44.7650000  51.7630000
  19.2050000  46.9730000  42.7980000  13.2810000  42.7230000  53.7720000
  12.2730000  42.4960000  52.0610000  15.4680000  43.7560000  53.5950000
  14.4890000  43.2050000  54.3570000  12.6130000  42.3310000  54.3220000
  16.2670000  44.0630000  54.0070000  14.6100000  43.1400000  55.2970000
  15.9290000  49.1390000  33.0920000  15.7730000  49.2590000  31.7000000
  14.9480000  48.5820000  33.9230000  17.1600000  49.6270000  33.6960000
  14.9710000  48.9410000  31.3000000  16.7490000  49.8240000  30.8900000
  14.1350000  48.2650000  33.5500000  15.1270000  48.4800000  35.3100000
  18.1520000  50.1990000  32.8640000  17.3390000  49.5250000  35.0840000
  17.9730000  50.3000000  31.4890000  16.5850000  49.9490000  29.4680000
  14.1350000  47.9090000  36.1420000  16.3580000  48.9680000  35.9140000
  18.9570000  50.5200000  33.2530000  18.1530000  49.8430000  35.4560000
  18.9690000  50.8860000  30.6260000  15.7850000  49.6430000  29.0560000
  17.5640000  50.5010000  28.7060000  14.3140000  47.8080000  37.5170000
  13.3300000  47.5870000  35.7530000  16.5150000  48.8490000  37.3060000
  18.7710000  50.9830000  29.2910000  19.7790000  51.2100000  31.0020000
  17.4430000  50.5650000  27.7660000  13.3180000  47.2220000  38.3800000
  15.5390000  48.2830000  38.1160000  17.3160000  49.1660000  37.7070000
  19.4400000  51.3750000  28.7410000  13.5160000  47.1240000  39.7150000
  12.5080000  46.8980000  38.0050000  15.7030000  48.1580000  39.5380000
  14.7240000  47.6070000  40.3000000  12.8480000  46.7330000  40.2650000
  16.5020000  48.4650000  39.9500000  14.8450000  47.5420000  41.2410000
  16.9320000  55.6930000  61.2050000  16.7750000  55.8130000  59.8140000
  15.9510000  55.1360000  62.0360000  18.1630000  56.1810000  61.8100000
  15.9740000  55.4950000  59.4130000  17.7510000  56.3780000  59.0040000
  15.1370000  54.8190000  61.6640000  16.1300000  55.0340000  63.4240000
  19.1540000  56.7530000  60.9780000  18.3420000  56.0790000  63.1970000
  18.9760000  56.8540000  59.6030000  17.5870000  56.5030000  57.5820000
  15.1380000  54.4620000  64.2560000  17.3610000  55.5220000  64.0280000
  19.9600000  57.0740000  61.3670000  19.1550000  56.3960000  63.5700000
  19.9720000  57.4400000  58.7400000  16.7880000  56.1970000  57.1700000
  18.5660000  57.0540000  56.8200000  15.3170000  54.3610000  65.6300000
  14.3330000  54.1410000  63.8660000  17.5170000  55.4020000  65.4200000
  19.7740000  57.5370000  57.4040000  20.7820000  57.7640000  59.1150000
  18.4450000  57.1190000  55.8790000  14.3210000  53.7750000  66.4940000
  16.5410000  54.8370000  66.2290000  18.3190000  55.7200000  65.8200000
  20.4420000  57.9290000  56.8550000  14.5190000  53.6780000  67.8290000
  13.5110000  53.4510000  66.1180000  16.7050000  54.7120000  67.6520000
  15.7260000  54.1610000  68.4140000  13.8500000  53.2860000  68.3790000
  17.5050000  55.0180000  68.0640000  15.8470000  54.0960000  69.3540000
  15.8570000  45.6910000  21.8580000  16.0130000  45.5720000  23.2490000
  16.8380000  46.2490000  21.0270000  14.6260000  45.2030000  21.2530000
  16.8150000  45.8900000  23.6500000  15.0370000  45.0070000  24.0590000
  17.6520000  46.5660000  21.3990000  16.6590000  46.3510000  19.6390000
  13.6340000  44.6320000  22.0850000  14.4470000  45.3050000  19.8660000
  13.8130000  44.5310000  23.4600000  15.2010000  44.8810000  25.4810000
  17.6510000  46.9220000  18.8070000  15.4280000  45.8630000  19.0350000
  12.8290000  44.3110000  21.6960000  13.6330000  44.9880000  19.4930000
  12.8170000  43.9450000  24.3230000  16.0010000  45.1880000  25.8930000
  14.2220000  44.3300000  26.2430000  17.4720000  47.0230000  17.4320000
  18.4560000  47.2430000  19.1970000  15.2710000  45.9820000  17.6430000
  13.0150000  43.8480000  25.6590000  12.0070000  43.6210000  23.9480000
  14.3430000  44.2650000  27.1840000  18.4680000  47.6090000  16.5690000
  16.2470000  46.5470000  16.8340000  14.4700000  45.6640000  17.2430000
  12.3460000  43.4560000  26.2080000  18.2700000  47.7060000  15.2340000
  19.2780000  47.9330000  16.9450000  16.0840000  46.6730000  15.4110000
  17.0630000  47.2240000  14.6490000  18.9380000  48.0980000  14.6840000
  15.2840000  46.3660000  14.9990000  16.9410000  47.2890000  13.7090000
  16.8590000  52.2450000  49.9710000  17.0160000  52.1260000  51.3630000
  17.8410000  52.8020000  49.1400000  15.6290000  51.7570000  49.3670000
  17.8170000  52.4430000  51.7630000  16.0400000  51.5600000  52.1730000
  18.6540000  53.1200000  49.5130000  17.6610000  52.9040000  47.7530000
  14.6370000  51.1850000  50.1990000  15.4490000  51.8590000  47.9790000
  14.8150000  51.0840000  51.5740000  16.2040000  51.4350000  53.5950000
  18.6530000  53.4760000  46.9210000  16.4300000  52.4160000  47.1490000
  13.8310000  50.8640000  49.8100000  14.6360000  51.5420000  47.6070000
  13.8190000  50.4990000  52.4370000  17.0040000  51.7410000  54.0070000
  15.2250000  50.8840000  54.3570000  18.4740000  53.5770000  45.5460000
  19.4580000  53.7970000  47.3100000  16.2740000  52.5360000  45.7570000
  14.0170000  50.4010000  53.7720000  13.0100000  50.1750000  52.0610000
  15.3460000  50.8190000  55.2970000  19.4700000  54.1630000  44.6830000
  17.2500000  53.1010000  44.9470000  15.4730000  52.2180000  45.3560000
  13.3490000  50.0100000  54.3220000  19.2730000  54.2600000  43.3480000
  20.2800000  54.4870000  45.0580000  17.0860000  53.2260000  43.5250000
  18.0650000  53.7770000  42.7630000  19.9410000  54.6520000  42.7980000
  16.2860000  52.9200000  43.1130000  17.9440000  53.8420000  41.8220000
  15.3560000  42.4150000   7.8010000  15.5120000  42.2950000   9.1920000
  16.3370000  42.9720000   6.9700000  14.1250000  41.9270000   7.1960000
  16.3130000  42.6130000   9.5930000  14.5360000  41.7300000  10.0020000
  17.1500000  43.2890000   7.3430000  16.1570000  43.0740000   5.5830000
  13.1330000  41.3550000   8.0280000  13.9450000  42.0280000   5.8090000
  13.3120000  41.2540000   9.4030000  14.7000000  41.6050000  11.4250000
  17.1490000  43.6450000   4.7500000  14.9270000  42.5860000   4.9780000
  12.3280000  41.0340000   7.6390000  13.1320000  41.7110000   5.4360000
  12.3160000  40.6680000  10.2660000  15.5000000  41.9110000  11.8360000
  13.7210000  41.0530000  12.1860000  16.9710000  43.7460000   3.3760000
  17.9550000  43.9660000   5.1400000  14.7700000  42.7050000   3.5870000
  12.5140000  40.5710000  11.6020000  11.5060000  40.3440000   9.8910000
  13.8420000  40.9890000  13.1270000  17.9670000  44.3320000   2.5130000
  15.7460000  43.2710000   2.7770000  13.9690000  42.3880000   3.1860000
  11.8450000  40.1790000  12.1510000  17.7690000  44.4290000   1.1770000
  18.7770000  44.6560000   2.8880000  15.5820000  43.3960000   1.3540000
  16.5610000  43.9470000   0.5920000  18.4370000  44.8210000   0.6280000
  14.7830000  43.0890000   0.9420000  16.4400000  44.0120000  -0.3480000
  17.9340000  62.2470000  89.3190000  17.7780000  62.3660000  87.9270000
  16.9530000  61.6890000  90.1500000  19.1650000  62.7350000  89.9230000
  16.9760000  62.0490000  87.5270000  18.7540000  62.9320000  87.1180000
  16.1400000  61.3720000  89.7770000  17.1320000  61.5880000  91.5370000
  20.1570000  63.3060000  89.0910000  19.3440000  62.6330000  91.3110000
  19.9780000  63.4070000  87.7170000  18.5900000  63.0570000  85.6950000
  16.1410000  61.0160000  92.3690000  18.3630000  62.0760000  92.1420000
  20.9620000  63.6270000  89.4810000  20.1580000  62.9500000  91.6830000
  20.9740000  63.9930000  86.8530000  17.7900000  62.7500000  85.2830000
  19.5690000  63.6080000  84.9330000  16.3190000  60.9150000  93.7440000
  15.3350000  60.6950000  91.9800000  18.5200000  61.9560000  93.5330000
  20.7760000  64.0900000  85.5180000  21.7840000  64.3170000  87.2290000
  19.4480000  63.6730000  83.9930000  15.3230000  60.3290000  94.6070000
  17.5440000  61.3910000  94.3430000  19.3210000  62.2740000  93.9340000
  21.4450000  64.4820000  84.9680000  15.5210000  60.2320000  95.9430000
  14.5130000  60.0050000  94.2320000  17.7080000  61.2660000  95.7650000
  16.7290000  60.7140000  96.5270000  14.8530000  59.8400000  96.4920000
  18.5070000  61.5720000  96.1770000  16.8500000  60.6500000  97.4680000
  18.1690000  66.6490000  75.2620000  18.0130000  66.7680000  73.8710000
  17.1880000  66.0910000  76.0930000  19.4000000  67.1370000  75.8670000
  17.2110000  66.4500000  73.4700000  18.9890000  67.3330000  73.0610000
  16.3740000  65.7740000  75.7200000  17.3670000  65.9890000  77.4800000
  20.3920000  67.7080000  75.0350000  19.5790000  67.0350000  77.2540000
  20.2130000  67.8090000  73.6600000  18.8250000  67.4590000  71.6380000
  16.3750000  65.4180000  78.3130000  18.5980000  66.4770000  78.0850000
  21.1970000  68.0290000  75.4240000  20.3930000  67.3520000  77.6270000
  21.2090000  68.3950000  72.7970000  18.0250000  67.1520000  71.2270000
  19.8040000  68.0100000  70.8770000  16.5540000  65.3170000  79.6870000
  15.5700000  65.0970000  77.9230000  18.7550000  66.3580000  79.4760000
  21.0110000  68.4920000  71.4610000  22.0190000  68.7190000  73.1720000
  19.6830000  68.0750000  69.9360000  15.5580000  64.7310000  80.5500000
  17.7790000  65.7930000  80.2860000  19.5560000  66.6750000  79.8770000
  21.6800000  68.8840000  70.9120000  15.7560000  64.6340000  81.8860000
  14.7480000  64.4070000  80.1750000  17.9420000  65.6670000  81.7090000
  16.9630000  65.1160000  82.4710000  15.0880000  64.2420000  82.4350000
  18.7420000  65.9740000  82.1210000  17.0850000  65.0510000  83.4110000
  17.1670000  60.0950000  47.1490000  17.0100000  60.2140000  45.7570000
  16.1850000  59.5380000  47.9790000  18.3970000  60.5830000  47.7530000
  16.2090000  59.8970000  45.3560000  17.9860000  60.7800000  44.9470000
  15.3720000  59.2200000  47.6070000  16.3650000  59.4360000  49.3670000
  19.3890000  61.1540000  46.9210000  18.5770000  60.4810000  49.1400000
  19.2110000  61.2560000  45.5460000  17.8220000  60.9050000  43.5250000
  15.3730000  58.8640000  50.1990000  17.5960000  59.9240000  49.9710000
  20.1950000  61.4760000  47.3100000  19.3900000  60.7980000  49.5130000
  20.2070000  61.8410000  44.6830000  17.0220000  60.5980000  43.1130000
  18.8010000  61.4560000  42.7630000  15.5520000  58.7630000  51.5740000
  14.5680000  58.5430000  49.8100000  17.7520000  59.8040000  51.3630000
  20.0090000  61.9390000  43.3480000  21.0160000  62.1650000  45.0580000
  18.6800000  61.5210000  41.8220000  14.5560000  58.1770000  52.4370000
  16.7760000  59.2390000  52.1730000  18.5530000  60.1220000  51.7630000
  20.6770000  62.3300000  42.7980000  14.7530000  58.0800000  53.7720000
  13.7460000  57.8530000  52.0610000  16.9400000  59.1140000  53.5950000
  15.9610000  58.5630000  54.3570000  14.0850000  57.6880000  54.3220000
  17.7400000  59.4200000  54.0070000  16.0820000  58.4980000  55.2970000
  17.0940000  56.6470000  35.9140000  17.2510000  56.5270000  37.3060000
  18.0750000  57.2040000  35.0840000  15.8640000  56.1590000  35.3100000
  18.0520000  56.8450000  37.7070000  16.2750000  55.9620000  38.1160000
  18.8890000  57.5210000  35.4560000  17.8960000  57.3060000  33.6960000
  14.8720000  55.5870000  36.1420000  15.6840000  56.2610000  33.9230000
  15.0500000  55.4860000  37.5170000  16.4390000  55.8370000  39.5380000
  18.8880000  57.8780000  32.8640000  16.6650000  56.8180000  33.0920000
  14.0660000  55.2660000  35.7530000  14.8710000  55.9440000  33.5500000
  14.0540000  54.9000000  38.3800000  17.2380000  56.1430000  39.9500000
  15.4600000  55.2860000  40.3000000  18.7090000  57.9790000  31.4890000
  19.6930000  58.1990000  33.2530000  16.5090000  56.9370000  31.7000000
  14.2520000  54.8030000  39.7150000  13.2440000  54.5760000  38.0050000
  15.5810000  55.2210000  41.2410000  19.7050000  58.5650000  30.6260000
  17.4850000  57.5030000  30.8900000  15.7070000  56.6200000  31.3000000
  13.5840000  54.4110000  40.2650000  19.5070000  58.6620000  29.2910000
  20.5150000  58.8890000  31.0020000  17.3210000  57.6280000  29.4680000
  18.3000000  58.1790000  28.7060000  20.1760000  59.0530000  28.7410000
  16.5210000  57.3220000  29.0560000  18.1790000  58.2440000  27.7660000
  15.6630000  50.2640000   4.9780000  15.5060000  50.3840000   3.5870000
  14.6820000  49.7070000   5.8090000  16.8940000  50.7520000   5.5830000
  14.7050000  50.0660000   3.1860000  16.4820000  50.9490000   2.7770000
  13.8680000  49.3900000   5.4360000  14.8610000  49.6050000   7.1960000
  17.8850000  51.3240000   4.7500000  17.0730000  50.6500000   6.9700000
  17.7070000  51.4250000   3.3760000  16.3180000  51.0740000   1.3540000
  13.8690000  49.0340000   8.0280000  16.0920000  50.0930000   7.8010000
  18.6910000  51.6450000   5.1400000  17.8860000  50.9680000   7.3430000
  18.7030000  52.0110000   2.5130000  15.5190000  50.7680000   0.9420000
  17.2970000  51.6250000   0.5920000  14.0480000  48.9320000   9.4030000
  13.0640000  48.7120000   7.6390000  16.2480000  49.9740000   9.1920000
  18.5050000  52.1080000   1.1770000  19.5130000  52.3350000   2.8880000
  17.1760000  51.6900000  -0.3480000  13.0520000  48.3470000  10.2660000
  15.2720000  49.4080000  10.0020000  17.0500000  50.2910000   9.5930000
  19.1730000  52.5000000   0.6280000  13.2500000  48.2490000  11.6020000
  12.2420000  48.0230000   9.8910000  15.4360000  49.2830000  11.4250000
  14.4570000  48.7320000  12.1860000  12.5810000  47.8580000  12.1510000
  16.2360000  49.5900000  11.8360000  14.5780000  48.6670000  13.1270000
  16.9000000  61.2200000  19.0350000  16.7440000  61.3390000  17.6430000
  15.9190000  60.6630000  19.8660000  18.1310000  61.7080000  19.6390000
  15.9420000  61.0220000  17.2430000  17.7200000  61.9050000  16.8340000
  15.1050000  60.3450000  19.4930000  16.0980000  60.5610000  21.2530000
  19.1230000  62.2790000  18.8070000  18.3100000  61.6060000  21.0270000
  18.9440000  62.3800000  17.4320000  17.5560000  62.0300000  15.4110000
  15.1060000  59.9890000  22.0850000  17.3290000  61.0490000  21.8580000
  19.9280000  62.6000000  19.1970000  19.1240000  61.9230000  21.3990000
  19.9400000  62.9660000  16.5690000  16.7560000  61.7230000  14.9990000
  18.5350000  62.5810000  14.6490000  15.2850000  59.8880000  23.4600000
  14.3010000  59.6680000  21.6960000  17.4860000  60.9290000  23.2490000
  19.7420000  63.0640000  15.2340000  20.7500000  63.2900000  16.9450000
  18.4140000  62.6460000  13.7090000  14.2890000  59.3020000  24.3230000
  16.5100000  60.3640000  24.0590000  18.2870000  61.2470000  23.6500000
  20.4110000  63.4550000  14.6840000  14.4870000  59.2050000  25.6590000
  13.4790000  58.9780000  23.9480000  16.6740000  60.2390000  25.4810000
  15.6950000  59.6870000  26.2430000  13.8190000  58.8130000  26.2080000
  17.4730000  60.5450000  25.8930000  15.8160000  59.6230000  27.1840000
  17.8300000  64.3250000  35.9140000  17.9870000  64.2060000  37.3060000
  18.8120000  64.8830000  35.0840000  16.6000000  63.8370000  35.3100000
  18.7880000  64.5240000  37.7070000  17.0110000  63.6410000  38.1160000
  19.6250000  65.2000000  35.4560000  18.6320000  64.9850000  33.6960000
  15.6080000  63.2660000  36.1420000  16.4200000  63.9390000  33.9230000
  15.7860000  63.1650000  37.5170000  17.1750000  63.5150000  39.5380000
  19.6240000  65.5560000  32.8640000  17.4010000  64.4970000  33.0920000
  14.8020000  62.9450000  35.7530000  15.6070000  63.6220000  33.5500000
  14.7900000  62.5790000  38.3800000  17.9750000  63.8220000  39.9500000
  16.1960000  62.9640000  40.3000000  19.4450000  65.6570000  31.4890000
  20.4290000  65.8770000  33.2530000  17.2450000  64.6160000  31.7000000
  14.9880000  62.4820000  39.7150000  13.9810000  62.2550000  38.0050000
  16.3170000  62.8990000  41.2410000  20.4410000  66.2430000  30.6260000
  18.2210000  65.1810000  30.8900000  16.4440000  64.2980000  31.3000000
  14.3200000  62.0900000  40.2650000  20.2430000  66.3400000  29.2910000
  21.2510000  66.5670000  31.0020000  18.0570000  65.3070000  29.4680000
  19.0360000  65.8580000  28.7060000  20.9120000  66.7320000  28.7410000
  17.2570000  65.0000000  29.0560000  18.9150000  65.9230000  27.7660000
  17.9030000  67.7730000  47.1490000  17.7460000  67.8930000  45.7570000
  16.9220000  67.2160000  47.9790000  19.1330000  68.2610000  47.7530000
  16.9450000  67.5750000  45.3560000  18.7220000  68.4580000  44.9470000
  16.1080000  66.8990000  47.6070000  17.1010000  67.1140000  49.3670000
  20.1250000  68.8330000  46.9210000  19.3130000  68.1600000  49.1400000
  19.9470000  68.9340000  45.5460000  18.5580000  68.5830000  43.5250000
  16.1090000  66.5430000  50.1990000  18.3320000  67.6020000  49.9710000
  20.9310000  69.1540000  47.3100000  20.1260000  68.4770000  49.5130000
  20.9430000  69.5200000  44.6830000  17.7590000  68.2770000  43.1130000
  19.5370000  69.1350000  42.7630000  16.2880000  66.4420000  51.5740000
  15.3040000  66.2220000  49.8100000  18.4880000  67.4830000  51.3630000
  20.7450000  69.6170000  43.3480000  21.7530000  69.8440000  45.0580000
  19.4160000  69.1990000  41.8220000  15.2920000  65.8560000  52.4370000
  17.5120000  66.9170000  52.1730000  19.2900000  67.8000000  51.7630000
  21.4130000  70.0090000  42.7980000  15.4900000  65.7590000  53.7720000
  14.4820000  65.5320000  52.0610000  17.6760000  66.7920000  53.5950000
  16.6970000  66.2410000  54.3570000  14.8210000  65.3670000  54.3220000
  18.4760000  67.0990000  54.0070000  16.8180000  66.1760000  55.2970000
  18.4040000  71.0500000  61.2050000  18.2470000  71.1700000  59.8140000
  17.4230000  70.4930000  62.0360000  19.6350000  71.5380000  61.8100000
  17.4460000  70.8520000  59.4130000  19.2230000  71.7350000  59.0040000
  16.6090000  70.1760000  61.6640000  17.6020000  70.3910000  63.4240000
  20.6270000  72.1100000  60.9780000  19.8140000  71.4360000  63.1970000
  20.4480000  72.2110000  59.6030000  19.0600000  71.8600000  57.5820000
  16.6100000  69.8190000  64.2560000  18.8330000  70.8790000  64.0280000
  21.4320000  72.4310000  61.3670000  20.6280000  71.7540000  63.5700000
  21.4440000  72.7970000  58.7400000  18.2600000  71.5540000  57.1700000
  20.0390000  72.4110000  56.8200000  16.7890000  69.7180000  65.6300000
  15.8050000  69.4980000  63.8660000  18.9890000  70.7600000  65.4200000
  21.2460000  72.8940000  57.4040000  22.2540000  73.1210000  59.1150000
  19.9170000  72.4760000  55.8790000  15.7930000  69.1330000  66.4940000
  18.0130000  70.1940000  66.2290000  19.7910000  71.0770000  65.8200000
  21.9140000  73.2860000  56.8550000  15.9910000  69.0350000  67.8290000
  14.9830000  68.8090000  66.1180000  18.1770000  70.0690000  67.6520000
  17.1980000  69.5180000  68.4140000  15.3220000  68.6440000  68.3790000
  18.9770000  70.3750000  68.0640000  17.3190000  69.4530000  69.3540000
  18.6390000  75.4520000  47.1490000  18.4820000  75.5720000  45.7570000
  17.6580000  74.8950000  47.9790000  19.8700000  75.9400000  47.7530000
  17.6810000  75.2540000  45.3560000  19.4580000  76.1370000  44.9470000
  16.8440000  74.5780000  47.6070000  17.8370000  74.7930000  49.3670000
  20.8620000  76.5120000  46.9210000  20.0490000  75.8380000  49.1400000
  20.6830000  76.6130000  45.5460000  19.2940000  76.2620000  43.5250000
  16.8450000  74.2210000  50.1990000  19.0680000  75.2810000  49.9710000
  21.6670000  76.8330000  47.3100000  20.8620000  76.1550000  49.5130000
  21.6790000  77.1990000  44.6830000  18.4950000  75.9560000  43.1130000
  20.2730000  76.8130000  42.7630000  17.0240000  74.1200000  51.5740000
  16.0400000  73.9000000  49.8100000  19.2240000  75.1610000  51.3630000
  21.4810000  77.2960000  43.3480000  22.4890000  77.5230000  45.0580000
  20.1520000  76.8780000  41.8220000  16.0280000  73.5340000  52.4370000
  18.2480000  74.5960000  52.1730000  20.0260000  75.4790000  51.7630000
  22.1490000  77.6870000  42.7980000  16.2260000  73.4370000  53.7720000
  15.2180000  73.2100000  52.0610000  18.4120000  74.4710000  53.5950000
  17.4330000  73.9200000  54.3570000  15.5570000  73.0450000  54.3220000
  19.2120000  74.7770000  54.0070000  17.5540000  73.8550000  55.2970000
  19.1400000  78.7290000  61.2050000  18.9840000  78.8480000  59.8140000
  18.1590000  78.1720000  62.0360000  20.3710000  79.2170000  61.8100000
  18.1820000  78.5310000  59.4130000  19.9600000  79.4140000  59.0040000
  17.3450000  77.8540000  61.6640000  18.3380000  78.0700000  63.4240000
  21.3630000  79.7880000  60.9780000  20.5500000  79.1150000  63.1970000
  21.1840000  79.8900000  59.6030000  19.7960000  79.5390000  57.5820000
  17.3460000  77.4980000  64.2560000  19.5690000  78.5580000  64.0280000
  22.1680000  80.1100000  61.3670000  21.3640000  79.4320000  63.5700000
  22.1800000  80.4750000  58.7400000  18.9960000  79.2320000  57.1700000
  20.7750000  80.0900000  56.8200000  17.5250000  77.3970000  65.6300000
  16.5410000  77.1770000  63.8660000  19.7260000  78.4380000  65.4200000
  21.9820000  80.5730000  57.4040000  22.9900000  80.7990000  59.1150000
  20.6540000  80.1550000  55.8790000  16.5290000  76.8110000  66.4940000
  18.7500000  77.8730000  66.2290000  20.5270000  78.7560000  65.8200000
  22.6510000  80.9640000  56.8550000  16.7270000  76.7140000  67.8290000
  15.7190000  76.4870000  66.1180000  18.9130000  77.7480000  67.6520000
  17.9340000  77.1970000  68.4140000  16.0590000  76.3220000  68.3790000
  19.7130000  78.0540000  68.0640000  18.0560000  77.1320000  69.3540000
  17.8710000  73.3000000   4.9780000  17.7150000  73.4200000   3.5870000
  16.8900000  72.7430000   5.8090000  19.1020000  73.7880000   5.5830000
  16.9130000  73.1020000   3.1860000  18.6910000  73.9850000   2.7770000
  16.0760000  72.4260000   5.4360000  17.0690000  72.6410000   7.1960000
  20.0940000  74.3600000   4.7500000  19.2810000  73.6860000   6.9700000
  19.9150000  74.4610000   3.3760000  18.5270000  74.1100000   1.3540000
  16.0770000  72.0690000   8.0280000  18.3000000  73.1290000   7.8010000
  20.8990000  74.6810000   5.1400000  20.0950000  74.0030000   7.3430000
  20.9110000  75.0470000   2.5130000  17.7270000  73.8040000   0.9420000
  19.5060000  74.6610000   0.5920000  16.2560000  71.9680000   9.4030000
  15.2720000  71.7480000   7.6390000  18.4570000  73.0090000   9.1920000
  20.7130000  75.1440000   1.1770000  21.7210000  75.3710000   2.8880000
  19.3850000  74.7260000  -0.3480000  15.2600000  71.3820000  10.2660000
  17.4810000  72.4440000  10.0020000  19.2580000  73.3270000   9.5930000
  21.3820000  75.5360000   0.6280000  15.4580000  71.2850000  11.6020000
  14.4500000  71.0580000   9.8910000  17.6440000  72.3190000  11.4250000
  16.6660000  71.7680000  12.1860000  14.7900000  70.8930000  12.1510000
  18.4440000  72.6250000  11.8360000  16.7870000  71.7030000  13.1270000
  20.8060000  89.5130000  78.0850000  20.9630000  89.3940000  79.4760000
  21.7880000  90.0700000  77.2540000  19.5760000  89.0250000  77.4800000
  21.7640000  89.7110000  79.8770000  19.9870000  88.8280000  80.2860000
  22.6010000  90.3880000  77.6270000  21.6080000  90.1720000  75.8670000
  18.5840000  88.4540000  78.3130000  19.3960000  89.1270000  76.0930000
  18.7620000  88.3520000  79.6870000  20.1510000  88.7030000  81.7090000
  22.6000000  90.7440000  75.0350000  20.3770000  89.6840000  75.2620000
  17.7780000  88.1320000  77.9230000  18.5830000  88.8100000  75.7200000
  17.7660000  87.7670000  80.5500000  20.9510000  89.0090000  82.1210000
  19.1720000  88.1520000  82.4710000  22.4210000  90.8450000  73.6600000
  23.4050000  91.0650000  75.4240000  20.2210000  89.8040000  73.8710000
  17.9640000  87.6690000  81.8860000  16.9570000  87.4430000  80.1750000
  19.2930000  88.0870000  83.4110000  23.4170000  91.4310000  72.7970000
  21.1970000  90.3690000  73.0610000  19.4200000  89.4860000  73.4700000
  17.2960000  87.2780000  82.4350000  23.2200000  91.5280000  71.4610000
  24.2270000  91.7550000  73.1720000  21.0330000  90.4940000  71.6380000
  22.0120000  91.0450000  70.8770000  23.8880000  91.9200000  70.9120000
  20.2330000  90.1880000  71.2270000  21.8910000  91.1100000  69.9360000
  20.8790000  92.9610000  89.3190000  20.7220000  93.0810000  87.9270000
  19.8980000  92.4040000  90.1500000  22.1100000  93.4490000  89.9230000
  19.9210000  92.7630000  87.5270000  21.6980000  93.6460000  87.1180000
  19.0840000  92.0870000  89.7770000  20.0770000  92.3020000  91.5370000
  23.1010000  94.0210000  89.0910000  22.2890000  93.3470000  91.3110000
  22.9230000  94.1220000  87.7170000  21.5340000  93.7710000  85.6950000
  19.0850000  91.7300000  92.3690000  21.3080000  92.7900000  92.1420000
  23.9070000  94.3420000  89.4810000  23.1020000  93.6640000  91.6830000
  23.9190000  94.7080000  86.8530000  20.7350000  93.4650000  85.2830000
  22.5130000  94.3220000  84.9330000  19.2640000  91.6290000  93.7440000
  18.2800000  91.4090000  91.9800000  21.4640000  92.6700000  93.5330000
  23.7210000  94.8050000  85.5180000  24.7290000  95.0320000  87.2290000
  22.3920000  94.3870000  83.9930000  18.2680000  91.0430000  94.6070000
  20.4880000  92.1050000  94.3430000  22.2660000  92.9880000  93.9340000
  24.3890000  95.1970000  84.9680000  18.4660000  90.9460000  95.9430000
  17.4580000  90.7190000  94.2320000  20.6520000  91.9800000  95.7650000
  19.6730000  91.4290000  96.5270000  17.7970000  90.5540000  96.4920000
  21.4520000  92.2860000  96.1770000  19.7940000  91.3640000  97.4680000
  19.6100000  87.5320000  33.0920000  19.4530000  87.6520000  31.7000000
  18.6290000  86.9750000  33.9230000  20.8410000  88.0200000  33.6960000
  18.6520000  87.3340000  31.3000000  20.4290000  88.2170000  30.8900000
  17.8150000  86.6580000  33.5500000  18.8080000  86.8730000  35.3100000
  21.8320000  88.5920000  32.8640000  21.0200000  87.9180000  35.0840000
  21.6540000  88.6930000  31.4890000  20.2650000  88.3420000  29.4680000
  17.8160000  86.3020000  36.1420000  20.0390000  87.3610000  35.9140000
  22.6380000  88.9130000  33.2530000  21.8330000  88.2360000  35.4560000
  22.6500000  89.2790000  30.6260000  19.4660000  88.0360000  29.0560000
  21.2440000  88.8940000  28.7060000  17.9950000  86.2010000  37.5170000
  17.0110000  85.9800000  35.7530000  20.1950000  87.2420000  37.3060000
  22.4520000  89.3760000  29.2910000  23.4600000  89.6030000  31.0020000
  21.1230000  88.9580000  27.7660000  16.9990000  85.6150000  38.3800000
  19.2190000  86.6760000  38.1160000  20.9970000  87.5590000  37.7070000
  23.1200000  89.7680000  28.7410000  17.1970000  85.5170000  39.7150000
  16.1890000  85.2910000  38.0050000  19.3830000  86.5510000  39.5380000
  18.4040000  86.0000000  40.3000000  16.5280000  85.1260000  40.2650000
  20.1830000  86.8580000  39.9500000  18.5250000  85.9350000  41.2410000
  21.1140000  97.3630000  75.2620000  20.9570000  97.4820000  73.8710000
  20.1320000  96.8060000  76.0930000  22.3440000  97.8510000  75.8670000
  20.1560000  97.1650000  73.4700000  21.9330000  98.0480000  73.0610000
  19.3190000  96.4880000  75.7200000  20.3120000  96.7040000  77.4800000
  23.3360000  98.4220000  75.0350000  22.5240000  97.7490000  77.2540000
  23.1580000  98.5240000  73.6600000  21.7690000  98.1730000  71.6380000
  19.3200000  96.1320000  78.3130000  21.5430000  97.1920000  78.0850000
  24.1420000  98.7440000  75.4240000  23.3370000  98.0660000  77.6270000
  24.1540000  99.1090000  72.7970000  20.9690000  97.8670000  71.2270000
  22.7480000  98.7240000  70.8770000  19.4990000  96.0310000  79.6870000
  18.5150000  95.8110000  77.9230000  21.6990000  97.0720000  79.4760000
  23.9560000  99.2070000  71.4610000  24.9630000  99.4330000  73.1720000
  22.6270000  98.7890000  69.9360000  18.5030000  95.4450000  80.5500000
  20.7230000  96.5070000  80.2860000  22.5000000  97.3900000  79.8770000
  24.6240000  99.5980000  70.9120000  18.7000000  95.3480000  81.8860000
  17.6930000  95.1210000  80.1750000  20.8870000  96.3820000  81.7090000
  19.9080000  95.8310000  82.4710000  18.0320000  94.9560000  82.4350000
  21.6870000  96.6880000  82.1210000  20.0290000  95.7660000  83.4110000
  21.6150000 100.6400000  89.3190000  21.4580000 100.7590000  87.9270000
  20.6340000 100.0820000  90.1500000  22.8460000 101.1280000  89.9230000
  20.6570000 100.4420000  87.5270000  22.4340000 101.3240000  87.1180000
  19.8200000  99.7650000  89.7770000  20.8130000  99.9810000  91.5370000
  23.8380000 101.6990000  89.0910000  23.0250000 101.0260000  91.3110000
  23.6590000 101.8000000  87.7170000  22.2700000 101.4500000  85.6950000
  19.8210000  99.4090000  92.3690000  22.0440000 100.4680000  92.1420000
  24.6430000 102.0200000  89.4810000  23.8390000 101.3430000  91.6830000
  24.6550000 102.3860000  86.8530000  21.4710000 101.1430000  85.2830000
  23.2490000 102.0010000  84.9330000  20.0000000  99.3080000  93.7440000
  19.0160000  99.0880000  91.9800000  22.2000000 100.3490000  93.5330000
  24.4570000 102.4830000  85.5180000  25.4650000 102.7100000  87.2290000
  23.1280000 102.0660000  83.9930000  19.0040000  98.7220000  94.6070000
  21.2240000  99.7840000  94.3430000  23.0020000 100.6670000  93.9340000
  25.1250000 102.8750000  84.9680000  19.2020000  98.6250000  95.9430000
  18.1940000  98.3980000  94.2320000  21.3880000  99.6590000  95.7650000
  20.4090000  99.1070000  96.5270000  18.5330000  98.2330000  96.4920000
  22.1880000  99.9650000  96.1770000  20.5300000  99.0430000  97.4680000
  11.7470000   7.4700000  19.0350000  11.5910000   7.5890000  17.6430000
  10.7660000   6.9120000  19.8660000  12.9780000   7.9580000  19.6390000
  10.7900000   7.2710000  17.2430000  12.5670000   8.1540000  16.8340000
   9.9530000   6.5950000  19.4930000  10.9460000   6.8100000  21.2530000
  13.9700000   8.5290000  18.8070000  13.1580000   7.8560000  21.0270000
  13.7910000   8.6300000  17.4320000  12.4030000   8.2800000  15.4110000
   9.9540000   6.2390000  22.0850000  12.1760000   7.2980000  21.8580000
  14.7750000   8.8500000  19.1970000  13.9710000   8.1730000  21.3990000
  14.7870000   9.2160000  16.5690000  11.6030000   7.9730000  14.9990000
  13.3820000   8.8310000  14.6490000  10.1320000   6.1380000  23.4600000
   9.1480000   5.9180000  21.6960000  12.3330000   7.1790000  23.2490000
  14.5890000   9.3130000  15.2340000  15.5970000   9.5400000  16.9450000
  13.2610000   8.8960000  13.7090000   9.1360000   5.5520000  24.3230000
  11.3570000   6.6140000  24.0590000  13.1340000   7.4970000  23.6500000
  15.2580000   9.7050000  14.6840000   9.3340000   5.4550000  25.6590000
   8.3260000   5.2280000  23.9480000  11.5210000   6.4880000  25.4810000
  10.5420000   5.9370000  26.2430000   8.6660000   5.0630000  26.2080000
  12.3200000   6.7950000  25.8930000  10.6630000   5.8720000  27.1840000
  13.6800000  17.1290000  64.0280000  13.8370000  17.0090000  65.4200000
  14.6610000  17.6860000  63.1970000  12.4490000  16.6410000  63.4240000
  14.6380000  17.3270000  65.8200000  12.8610000  16.4440000  66.2290000
  15.4750000  18.0030000  63.5700000  14.4820000  17.7880000  61.8100000
  11.4570000  16.0690000  64.2560000  12.2700000  16.7430000  62.0360000
  11.6360000  15.9680000  65.6300000  13.0240000  16.3190000  67.6520000
  15.4740000  18.3600000  60.9780000  13.2510000  17.3000000  61.2050000
  10.6520000  15.7480000  63.8660000  11.4560000  16.4260000  61.6640000
  10.6400000  15.3820000  66.4940000  13.8240000  16.6250000  68.0640000
  12.0450000  15.7680000  68.4140000  15.2950000  18.4610000  59.6030000
  16.2790000  18.6810000  61.3670000  13.0950000  17.4200000  59.8140000
  10.8380000  15.2850000  67.8290000   9.8300000  15.0580000  66.1180000
  12.1670000  15.7030000  69.3540000  16.2910000  19.0470000  58.7400000
  14.0710000  17.9850000  59.0040000  12.2930000  17.1020000  59.4130000
  10.1700000  14.8930000  68.3790000  16.0930000  19.1440000  57.4040000
  17.1010000  19.3710000  59.1150000  13.9070000  18.1100000  57.5820000
  14.8860000  18.6610000  56.8200000  16.7620000  19.5360000  56.8550000
  13.1070000  17.8040000  57.1700000  14.7650000  18.7260000  55.8790000
  14.4160000  24.8070000  64.0280000  14.5730000  24.6880000  65.4200000
  15.3970000  25.3650000  63.1970000  13.1850000  24.3190000  63.4240000
  15.3740000  25.0060000  65.8200000  13.5970000  24.1230000  66.2290000
  16.2110000  25.6820000  63.5700000  15.2180000  25.4670000  61.8100000
  12.1940000  23.7480000  64.2560000  13.0060000  24.4210000  62.0360000
  12.3720000  23.6470000  65.6300000  13.7610000  23.9970000  67.6520000
  16.2100000  26.0380000  60.9780000  13.9870000  24.9790000  61.2050000
  11.3880000  23.4270000  63.8660000  12.1930000  24.1040000  61.6640000
  11.3760000  23.0610000  66.4940000  14.5600000  24.3040000  68.0640000
  12.7820000  23.4460000  68.4140000  16.0310000  26.1390000  59.6030000
  17.0150000  26.3590000  61.3670000  13.8310000  25.0980000  59.8140000
  11.5740000  22.9640000  67.8290000  10.5660000  22.7370000  66.1180000
  12.9030000  23.3810000  69.3540000  17.0270000  26.7250000  58.7400000
  14.8070000  25.6630000  59.0040000  13.0290000  24.7810000  59.4130000
  10.9060000  22.5720000  68.3790000  16.8290000  26.8220000  57.4040000
  17.8370000  27.0490000  59.1150000  14.6430000  25.7890000  57.5820000
  15.6220000  26.3400000  56.8200000  17.4980000  27.2140000  56.8550000
  13.8430000  25.4820000  57.1700000  15.5010000  26.4050000  55.8790000
  15.6540000  35.7630000  78.0850000  15.8100000  35.6430000  79.4760000
  16.6350000  36.3200000  77.2540000  14.4230000  35.2750000  77.4800000
  16.6110000  35.9610000  79.8770000  14.8340000  35.0780000  80.2860000
  17.4480000  36.6370000  77.6270000  16.4550000  36.4220000  75.8670000
  13.4310000  34.7030000  78.3130000  14.2430000  35.3770000  76.0930000
  13.6100000  34.6020000  79.6870000  14.9980000  34.9530000  81.7090000
  17.4470000  36.9940000  75.0350000  15.2250000  35.9340000  75.2620000
  12.6260000  34.3820000  77.9230000  13.4300000  35.0600000  75.7200000
  12.6140000  34.0160000  80.5500000  15.7980000  35.2590000  82.1210000
  14.0190000  34.4020000  82.4710000  17.2690000  37.0950000  73.6600000
  18.2530000  37.3150000  75.4240000  15.0680000  36.0540000  73.8710000
  12.8120000  33.9190000  81.8860000  11.8040000  33.6920000  80.1750000
  14.1400000  34.3370000  83.4110000  18.2650000  37.6810000  72.7970000
  16.0440000  36.6190000  73.0610000  14.2670000  35.7360000  73.4700000
  12.1430000  33.5270000  82.4350000  18.0670000  37.7780000  71.4610000
  19.0740000  38.0050000  73.1720000  15.8800000  36.7440000  71.6380000
  16.8590000  37.2950000  70.8770000  18.7350000  38.1700000  70.9120000
  15.0800000  36.4380000  71.2270000  16.7380000  37.3600000  69.9360000
  16.1550000  39.0400000  92.1420000  16.3110000  38.9200000  93.5330000
  17.1360000  39.5970000  91.3110000  14.9240000  38.5520000  91.5370000
  17.1130000  39.2380000  93.9340000  15.3350000  38.3550000  94.3430000
  17.9500000  39.9140000  91.6830000  16.9570000  39.6990000  89.9230000
  13.9320000  37.9800000  92.3690000  14.7450000  38.6540000  90.1500000
  14.1110000  37.8790000  93.7440000  15.4990000  38.2300000  95.7650000
  17.9490000  40.2710000  89.0910000  15.7260000  39.2110000  89.3190000
  13.1270000  37.6590000  91.9800000  13.9310000  38.3370000  89.7770000
  13.1150000  37.2930000  94.6070000  16.2990000  38.5360000  96.1770000
  14.5200000  37.6790000  96.5270000  17.7700000  40.3720000  87.7170000
  18.7540000  40.5920000  89.4810000  15.5690000  39.3300000  87.9270000
  13.3130000  37.1960000  95.9430000  12.3050000  36.9690000  94.2320000
  14.6410000  37.6140000  97.4680000  18.7660000  40.9570000  86.8530000
  16.5450000  39.8960000  87.1180000  14.7680000  39.0130000  87.5270000
  12.6440000  36.8040000  96.4920000  18.5680000  41.0550000  85.5180000
  19.5760000  41.2810000  87.2290000  16.3820000  40.0210000  85.6950000
  17.3610000  40.5720000  84.9330000  19.2360000  41.4460000  84.9680000
  15.5820000  39.7150000  85.2830000  17.2390000  40.6370000  83.9930000
  14.3850000  30.3340000  21.8580000  14.5410000  30.2150000  23.2490000
  15.3660000  30.8910000  21.0270000  13.1540000  29.8460000  21.2530000
  15.3430000  30.5320000  23.6500000  13.5650000  29.6490000  24.0590000
  16.1790000  31.2090000  21.3990000  15.1860000  30.9930000  19.6390000
  12.1620000  29.2750000  22.0850000  12.9750000  29.9480000  19.8660000
  12.3410000  29.1740000  23.4600000  13.7290000  29.5240000  25.4810000
  16.1780000  31.5650000  18.8070000  13.9560000  30.5050000  19.0350000
  11.3570000  28.9530000  21.6960000  12.1610000  29.6310000  19.4930000
  11.3450000  28.5880000  24.3230000  14.5290000  29.8310000  25.8930000
  12.7500000  28.9730000  26.2430000  16.0000000  31.6660000  17.4320000
  16.9840000  31.8860000  19.1970000  13.7990000  30.6250000  17.6430000
  11.5430000  28.4900000  25.6590000  10.5350000  28.2640000  23.9480000
  12.8710000  28.9080000  27.1840000  16.9960000  32.2520000  16.5690000
  14.7750000  31.1900000  16.8340000  12.9980000  30.3070000  17.2430000
  10.8740000  28.0990000  26.2080000  16.7980000  32.3490000  15.2340000
  17.8060000  32.5760000  16.9450000  14.6110000  31.3150000  15.4110000
  15.5900000  31.8670000  14.6490000  17.4660000  32.7410000  14.6840000
  13.8120000  31.0090000  14.9990000  15.4690000  31.9310000  13.7090000
  15.8880000  40.1650000  64.0280000  16.0450000  40.0450000  65.4200000
  16.8700000  40.7220000  63.1970000  14.6580000  39.6770000  63.4240000
  16.8460000  40.3630000  65.8200000  15.0690000  39.4800000  66.2290000
  17.6830000  41.0390000  63.5700000  16.6900000  40.8240000  61.8100000
  13.6660000  39.1050000  64.2560000  14.4780000  39.7790000  62.0360000
  13.8440000  39.0040000  65.6300000  15.2330000  39.3550000  67.6520000
  17.6820000  41.3950000  60.9780000  15.4590000  40.3360000  61.2050000
  12.8600000  38.7840000  63.8660000  13.6650000  39.4610000  61.6640000
  12.8480000  38.4180000  66.4940000  16.0330000  39.6610000  68.0640000
  14.2540000  38.8040000  68.4140000  17.5040000  41.4970000  59.6030000
  18.4880000  41.7170000  61.3670000  15.3030000  40.4550000  59.8140000
  13.0460000  38.3210000  67.8290000  12.0390000  38.0940000  66.1180000
  14.3750000  38.7390000  69.3540000  18.5000000  42.0820000  58.7400000
  16.2790000  41.0210000  59.0040000  14.5020000  40.1380000  59.4130000
  12.3780000  37.9290000  68.3790000  18.3020000  42.1800000  57.4040000
  19.3090000  42.4060000  59.1150000  16.1150000  41.1460000  57.5820000
  17.0940000  41.6970000  56.8200000  18.9700000  42.5710000  56.8550000
  15.3150000  40.8400000  57.1700000  16.9730000  41.7620000  55.8790000
  16.6250000  47.8430000  64.0280000  16.7810000  47.7240000  65.4200000
  17.6060000  48.4010000  63.1970000  15.3940000  47.3550000  63.4240000
  17.5820000  48.0410000  65.8200000  15.8050000  47.1590000  66.2290000
  18.4190000  48.7180000  63.5700000  17.4260000  48.5030000  61.8100000
  14.4020000  46.7840000  64.2560000  15.2140000  47.4570000  62.0360000
  14.5810000  46.6830000  65.6300000  15.9690000  47.0330000  67.6520000
  18.4180000  49.0740000  60.9780000  16.1960000  48.0150000  61.2050000
  13.5970000  46.4630000  63.8660000  14.4010000  47.1400000  61.6640000
  13.5850000  46.0970000  66.4940000  16.7690000  47.3400000  68.0640000
  14.9900000  46.4820000  68.4140000  18.2400000  49.1750000  59.6030000
  19.2240000  49.3950000  61.3670000  16.0390000  48.1340000  59.8140000
  13.7830000  46.0000000  67.8290000  12.7750000  45.7730000  66.1180000
  15.1110000  46.4170000  69.3540000  19.2360000  49.7610000  58.7400000
  17.0150000  48.6990000  59.0040000  15.2380000  47.8160000  59.4130000
  13.1140000  45.6080000  68.3790000  19.0380000  49.8580000  57.4040000
  20.0450000  50.0850000  59.1150000  16.8510000  48.8250000  57.5820000
  17.8300000  49.3760000  56.8200000  19.7060000  50.2500000  56.8550000
  16.0510000  48.5180000  57.1700000  17.7090000  49.4400000  55.8790000
  14.1910000  34.9070000   4.9780000  14.0340000  35.0270000   3.5870000
  13.2090000  34.3500000   5.8090000  15.4210000  35.3950000   5.5830000
  13.2330000  34.7090000   3.1860000  15.0100000  35.5920000   2.7770000
  12.3960000  34.0330000   5.4360000  13.3890000  34.2480000   7.1960000
  16.4130000  35.9670000   4.7500000  15.6010000  35.2930000   6.9700000
  16.2350000  36.0680000   3.3760000  14.8460000  35.7170000   1.3540000
  12.3970000  33.6760000   8.0280000  14.6200000  34.7360000   7.8010000
  17.2190000  36.2880000   5.1400000  16.4140000  35.6100000   7.3430000
  17.2310000  36.6540000   2.5130000  14.0460000  35.4110000   0.9420000
  15.8250000  36.2680000   0.5920000  12.5760000  33.5750000   9.4030000
  11.5920000  33.3550000   7.6390000  14.7760000  34.6160000   9.1920000
  17.0330000  36.7510000   1.1770000  18.0400000  36.9780000   2.8880000
  15.7040000  36.3330000  -0.3480000  11.5790000  32.9890000  10.2660000
  13.8000000  34.0510000  10.0020000  15.5770000  34.9340000   9.5930000
  17.7010000  37.1430000   0.6280000  11.7770000  32.8920000  11.6020000
  10.7700000  32.6650000   9.8910000  13.9640000  33.9260000  11.4250000
  12.9850000  33.3750000  12.1860000  11.1090000  32.5010000  12.1510000
  14.7640000  34.2320000  11.8360000  13.1060000  33.3100000  13.1270000
  17.4330000  58.9700000  75.2620000  17.2770000  59.0890000  73.8710000
  16.4520000  58.4130000  76.0930000  18.6640000  59.4580000  75.8670000
  16.4750000  58.7720000  73.4700000  18.2520000  59.6550000  73.0610000
  15.6380000  58.0950000  75.7200000  16.6310000  58.3110000  77.4800000
  19.6560000  60.0300000  75.0350000  18.8430000  59.3560000  77.2540000
  19.4770000  60.1310000  73.6600000  18.0890000  59.7800000  71.6380000
  15.6390000  57.7390000  78.3130000  17.8620000  58.7990000  78.0850000
  20.4610000  60.3510000  75.4240000  19.6570000  59.6730000  77.6270000
  20.4730000  60.7160000  72.7970000  17.2890000  59.4740000  71.2270000
  19.0680000  60.3310000  70.8770000  15.8180000  57.6380000  79.6870000
  14.8340000  57.4180000  77.9230000  18.0180000  58.6790000  79.4760000
  20.2750000  60.8140000  71.4610000  21.2830000  61.0400000  73.1720000
  18.9460000  60.3960000  69.9360000  14.8220000  57.0520000  80.5500000
  17.0430000  58.1140000  80.2860000  18.8200000  58.9970000  79.8770000
  20.9430000  61.2050000  70.9120000  15.0200000  56.9550000  81.8860000
  14.0120000  56.7280000  80.1750000  17.2060000  57.9890000  81.7090000
  16.2270000  57.4380000  82.4710000  14.3510000  56.5630000  82.4350000
  18.0060000  58.2950000  82.1210000  16.3480000  57.3730000  83.4110000
  16.1640000  53.5410000  19.0350000  16.0080000  53.6610000  17.6430000
  15.1830000  52.9840000  19.8660000  17.3950000  54.0290000  19.6390000
  15.2060000  53.3430000  17.2430000  16.9840000  54.2260000  16.8340000
  14.3690000  52.6670000  19.4930000  15.3620000  52.8820000  21.2530000
  18.3870000  54.6010000  18.8070000  17.5740000  53.9270000  21.0270000
  18.2080000  54.7020000  17.4320000  16.8200000  54.3510000  15.4110000
  14.3700000  52.3100000  22.0850000  16.5930000  53.3700000  21.8580000
  19.1920000  54.9220000  19.1970000  18.3880000  54.2440000  21.3990000
  19.2040000  55.2880000  16.5690000  16.0200000  54.0450000  14.9990000
  17.7990000  54.9020000  14.6490000  14.5490000  52.2090000  23.4600000
  13.5650000  51.9890000  21.6960000  16.7490000  53.2510000  23.2490000
  19.0060000  55.3850000  15.2340000  20.0140000  55.6120000  16.9450000
  17.6780000  54.9670000  13.7090000  13.5530000  51.6230000  24.3230000
  15.7740000  52.6850000  24.0590000  17.5510000  53.5680000  23.6500000
  19.6750000  55.7770000  14.6840000  13.7510000  51.5260000  25.6590000
  12.7430000  51.2990000  23.9480000  15.9370000  52.5600000  25.4810000
  14.9580000  52.0090000  26.2430000  13.0830000  51.1350000  26.2080000
  16.7370000  52.8660000  25.8930000  15.0800000  51.9440000  27.1840000
  18.0970000  63.2000000  64.0280000  18.2530000  63.0810000  65.4200000
  19.0780000  63.7580000  63.1970000  16.8660000  62.7120000  63.4240000
  19.0550000  63.3990000  65.8200000  17.2770000  62.5160000  66.2290000
  19.8920000  64.0750000  63.5700000  18.8990000  63.8600000  61.8100000
  15.8740000  62.1410000  64.2560000  16.6870000  62.8140000  62.0360000
  16.0530000  62.0400000  65.6300000  17.4410000  62.3900000  67.6520000
  19.8910000  64.4310000  60.9780000  17.6680000  63.3720000  61.2050000
  15.0690000  61.8200000  63.8660000  15.8730000  62.4970000  61.6640000
  15.0570000  61.4540000  66.4940000  18.2410000  62.6970000  68.0640000
  16.4620000  61.8390000  68.4140000  19.7120000  64.5320000  59.6030000
  20.6960000  64.7520000  61.3670000  17.5110000  63.4910000  59.8140000
  15.2550000  61.3570000  67.8290000  14.2470000  61.1300000  66.1180000
  16.5830000  61.7740000  69.3540000  20.7080000  65.1180000  58.7400000
  18.4870000  64.0560000  59.0040000  16.7100000  63.1740000  59.4130000
  14.5860000  60.9650000  68.3790000  20.5100000  65.2150000  57.4040000
  21.5180000  65.4420000  59.1150000  18.3230000  64.1820000  57.5820000
  19.3020000  64.7330000  56.8200000  21.1780000  65.6070000  56.8550000
  17.5240000  63.8750000  57.1700000  19.1810000  64.7980000  55.8790000
  19.8350000  77.4330000  92.1420000  19.9920000  77.3130000  93.5330000
  20.8170000  77.9900000  91.3110000  18.6050000  76.9450000  91.5370000
  20.7930000  77.6310000  93.9340000  19.0160000  76.7480000  94.3430000
  21.6300000  78.3070000  91.6830000  20.6370000  78.0920000  89.9230000
  17.6130000  76.3730000  92.3690000  18.4250000  77.0470000  90.1500000
  17.7910000  76.2720000  93.7440000  19.1800000  76.6230000  95.7650000
  21.6290000  78.6640000  89.0910000  19.4060000  77.6040000  89.3190000
  16.8070000  76.0520000  91.9800000  17.6120000  76.7290000  89.7770000
  16.7950000  75.6860000  94.6070000  19.9800000  76.9290000  96.1770000
  18.2010000  76.0720000  96.5270000  21.4510000  78.7650000  87.7170000
  22.4340000  78.9850000  89.4810000  19.2500000  77.7230000  87.9270000
  16.9930000  75.5890000  95.9430000  15.9860000  75.3620000  94.2320000
  18.3220000  76.0070000  97.4680000  22.4470000  79.3500000  86.8530000
  20.2260000  78.2890000  87.1180000  18.4490000  77.4060000  87.5270000
  16.3250000  75.1970000  96.4920000  22.2490000  79.4480000  85.5180000
  23.2560000  79.6740000  87.2290000  20.0620000  78.4140000  85.6950000
  21.0410000  78.9650000  84.9330000  22.9170000  79.8390000  84.9680000
  19.2620000  78.1080000  85.2830000  20.9200000  79.0300000  83.9930000
  18.9050000  74.3270000  75.2620000  18.7490000  74.4470000  73.8710000
  17.9240000  73.7700000  76.0930000  20.1360000  74.8150000  75.8670000
  17.9470000  74.1290000  73.4700000  19.7250000  75.0120000  73.0610000
  17.1110000  73.4530000  75.7200000  18.1030000  73.6680000  77.4800000
  21.1280000  75.3870000  75.0350000  20.3150000  74.7130000  77.2540000
  20.9490000  75.4880000  73.6600000  19.5610000  75.1370000  71.6380000
  17.1110000  73.0960000  78.3130000  19.3340000  74.1560000  78.0850000
  21.9330000  75.7080000  75.4240000  21.1290000  75.0300000  77.6270000
  21.9450000  76.0740000  72.7970000  18.7610000  74.8310000  71.2270000
  20.5400000  75.6880000  70.8770000  17.2900000  72.9950000  79.6870000
  16.3060000  72.7750000  77.9230000  19.4910000  74.0360000  79.4760000
  21.7470000  76.1710000  71.4610000  22.7550000  76.3980000  73.1720000
  20.4190000  75.7530000  69.9360000  16.2940000  72.4090000  80.5500000
  18.5150000  73.4710000  80.2860000  20.2920000  74.3540000  79.8770000
  22.4160000  76.5630000  70.9120000  16.4920000  72.3120000  81.8860000
  15.4840000  72.0850000  80.1750000  18.6790000  73.3460000  81.7090000
  17.7000000  72.7950000  82.4710000  15.8240000  71.9200000  82.4350000
  19.4780000  73.6520000  82.1210000  17.8210000  72.7300000  83.4110000
  17.1350000  65.6220000   4.9780000  16.9790000  65.7410000   3.5870000
  16.1540000  65.0640000   5.8090000  18.3660000  66.1100000   5.5830000
  16.1770000  65.4230000   3.1860000  17.9540000  66.3060000   2.7770000
  15.3400000  64.7470000   5.4360000  16.3330000  64.9620000   7.1960000
  19.3580000  66.6810000   4.7500000  18.5450000  66.0080000   6.9700000
  19.1790000  66.7820000   3.3760000  17.7910000  66.4320000   1.3540000
  15.3410000  64.3910000   8.0280000  17.5640000  65.4500000   7.8010000
  20.1630000  67.0020000   5.1400000  19.3590000  66.3250000   7.3430000
  20.1750000  67.3680000   2.5130000  16.9910000  66.1250000   0.9420000
  18.7700000  66.9830000   0.5920000  15.5200000  64.2900000   9.4030000
  14.5360000  64.0700000   7.6390000  17.7200000  65.3310000   9.1920000
  19.9770000  67.4650000   1.1770000  20.9850000  67.6920000   2.8880000
  18.6490000  67.0480000  -0.3480000  14.5240000  63.7040000  10.2660000
  16.7450000  64.7660000  10.0020000  18.5220000  65.6480000   9.5930000
  20.6460000  67.8570000   0.6280000  14.7220000  63.6070000  11.6020000
  13.7140000  63.3800000   9.8910000  16.9080000  64.6400000  11.4250000
  15.9290000  64.0890000  12.1860000  14.0540000  63.2150000  12.1510000
  17.7080000  64.9470000  11.8360000  16.0510000  64.0240000  13.1270000
  19.6410000  82.0060000  75.2620000  19.4850000  82.1250000  73.8710000
  18.6600000  81.4480000  76.0930000  20.8720000  82.4940000  75.8670000
  18.6840000  81.8080000  73.4700000  20.4610000  82.6900000  73.0610000
  17.8470000  81.1310000  75.7200000  18.8400000  81.3460000  77.4800000
  21.8640000  83.0650000  75.0350000  21.0520000  82.3920000  77.2540000
  21.6850000  83.1660000  73.6600000  20.2970000  82.8160000  71.6380000
  17.8480000  80.7750000  78.3130000  20.0700000  81.8340000  78.0850000
  22.6690000  83.3860000  75.4240000  21.8650000  82.7090000  77.6270000
  22.6810000  83.7520000  72.7970000  19.4970000  82.5090000  71.2270000
  21.2760000  83.3670000  70.8770000  18.0260000  80.6740000  79.6870000
  17.0420000  80.4540000  77.9230000  20.2270000  81.7150000  79.4760000
  22.4830000  83.8490000  71.4610000  23.4910000  84.0760000  73.1720000
  21.1550000  83.4320000  69.9360000  17.0300000  80.0880000  80.5500000
  19.2510000  81.1500000  80.2860000  21.0280000  82.0330000  79.8770000
  23.1520000  84.2410000  70.9120000  17.2280000  79.9910000  81.8860000
  16.2200000  79.7640000  80.1750000  19.4150000  81.0240000  81.7090000
  18.4360000  80.4730000  82.4710000  16.5600000  79.5990000  82.4350000
  20.2140000  81.3310000  82.1210000  18.5570000  80.4090000  83.4110000
  18.8010000  76.4060000  21.8580000  18.9580000  76.2860000  23.2490000
  19.7830000  76.9630000  21.0270000  17.5710000  75.9180000  21.2530000
  19.7590000  76.6040000  23.6500000  17.9820000  75.7210000  24.0590000
  20.5960000  77.2800000  21.3990000  19.6030000  77.0650000  19.6390000
  16.5790000  75.3460000  22.0850000  17.3910000  76.0200000  19.8660000
  16.7570000  75.2450000  23.4600000  18.1460000  75.5960000  25.4810000
  20.5950000  77.6370000  18.8070000  18.3720000  76.5770000  19.0350000
  15.7730000  75.0250000  21.6960000  16.5780000  75.7030000  19.4930000
  15.7610000  74.6590000  24.3230000  18.9460000  75.9020000  25.8930000
  17.1670000  75.0450000  26.2430000  20.4160000  77.7380000  17.4320000
  21.4000000  77.9580000  19.1970000  18.2160000  76.6960000  17.6430000
  15.9590000  74.5620000  25.6590000  14.9520000  74.3350000  23.9480000
  17.2880000  74.9800000  27.1840000  21.4120000  78.3240000  16.5690000
  19.1920000  77.2620000  16.8340000  17.4150000  76.3790000  17.2430000
  15.2910000  74.1700000  26.2080000  21.2140000  78.4210000  15.2340000
  22.2220000  78.6470000  16.9450000  19.0280000  77.3870000  15.4110000
  20.0070000  77.9380000  14.6490000  21.8830000  78.8120000  14.6840000
  18.2280000  77.0810000  14.9990000  19.8860000  78.0030000  13.7090000
  18.6070000  80.9790000   4.9780000  18.4510000  81.0980000   3.5870000
  17.6260000  80.4210000   5.8090000  19.8380000  81.4670000   5.5830000
  17.6490000  80.7810000   3.1860000  19.4270000  81.6630000   2.7770000
  16.8130000  80.1040000   5.4360000  17.8050000  80.3200000   7.1960000
  20.8300000  82.0380000   4.7500000  20.0170000  81.3650000   6.9700000
  20.6510000  82.1390000   3.3760000  19.2630000  81.7890000   1.3540000
  16.8140000  79.7480000   8.0280000  19.0360000  80.8070000   7.8010000
  21.6350000  82.3590000   5.1400000  20.8310000  81.6820000   7.3430000
  21.6470000  82.7250000   2.5130000  18.4630000  81.4820000   0.9420000
  20.2420000  82.3400000   0.5920000  16.9920000  79.6470000   9.4030000
  16.0080000  79.4270000   7.6390000  19.1930000  80.6880000   9.1920000
  21.4490000  82.8220000   1.1770000  22.4570000  83.0490000   2.8880000
  20.1210000  82.4050000  -0.3480000  15.9960000  79.0610000  10.2660000
  18.2170000  80.1230000  10.0020000  19.9940000  81.0060000   9.5930000
  22.1180000  83.2140000   0.6280000  16.1940000  78.9640000  11.6020000
  15.1860000  78.7370000   9.8910000  18.3810000  79.9980000  11.4250000
  17.4020000  79.4460000  12.1860000  15.5260000  78.5720000  12.1510000
  19.1800000  80.3040000  11.8360000  17.5230000  79.3820000  13.1270000
  19.5380000  84.0840000  21.8580000  19.6940000  83.9650000  23.2490000
  20.5190000  84.6420000  21.0270000  18.3070000  83.5960000  21.2530000
  20.4950000  84.2830000  23.6500000  18.7180000  83.4000000  24.0590000
  21.3320000  84.9590000  21.3990000  20.3390000  84.7440000  19.6390000
  17.3150000  83.0250000  22.0850000  18.1270000  83.6980000  19.8660000
  17.4930000  82.9240000  23.4600000  18.8820000  83.2740000  25.4810000
  21.3310000  85.3150000  18.8070000  19.1080000  84.2560000  19.0350000
  16.5090000  82.7040000  21.6960000  17.3140000  83.3810000  19.4930000
  16.4970000  82.3380000  24.3230000  19.6820000  83.5810000  25.8930000
  17.9030000  82.7230000  26.2430000  21.1530000  85.4160000  17.4320000
  22.1370000  85.6360000  19.1970000  18.9520000  84.3750000  17.6430000
  16.6950000  82.2410000  25.6590000  15.6880000  82.0140000  23.9480000
  18.0240000  82.6580000  27.1840000  22.1490000  86.0020000  16.5690000
  19.9280000  84.9400000  16.8340000  18.1510000  84.0570000  17.2430000
  16.0270000  81.8490000  26.2080000  21.9510000  86.0990000  15.2340000
  22.9580000  86.3260000  16.9450000  19.7640000  85.0660000  15.4110000
  20.7430000  85.6170000  14.6490000  22.6190000  86.4910000  14.6840000
  18.9640000  84.7590000  14.9990000  20.6220000  85.6820000  13.7090000
  21.0410000  93.9150000  64.0280000  21.1980000  93.7950000  65.4200000
  22.0220000  94.4720000  63.1970000  19.8110000  93.4270000  63.4240000
  21.9990000  94.1130000  65.8200000  20.2220000  93.2300000  66.2290000
  22.8360000  94.7890000  63.5700000  21.8430000  94.5740000  61.8100000
  18.8190000  92.8550000  64.2560000  19.6310000  93.5290000  62.0360000
  18.9970000  92.7540000  65.6300000  20.3860000  93.1050000  67.6520000
  22.8350000  95.1460000  60.9780000  20.6120000  94.0860000  61.2050000
  18.0130000  92.5340000  63.8660000  18.8180000  93.2120000  61.6640000
  18.0010000  92.1680000  66.4940000  21.1850000  93.4110000  68.0640000
  19.4070000  92.5540000  68.4140000  22.6560000  95.2470000  59.6030000
  23.6400000  95.4670000  61.3670000  20.4560000  94.2060000  59.8140000
  18.1990000  92.0710000  67.8290000  17.1910000  91.8440000  66.1180000
  19.5280000  92.4890000  69.3540000  23.6520000  95.8330000  58.7400000
  21.4320000  94.7710000  59.0040000  19.6540000  93.8880000  59.4130000
  17.5310000  91.6790000  68.3790000  23.4540000  95.9300000  57.4040000
  24.4620000  96.1570000  59.1150000  21.2680000  94.8960000  57.5820000
  22.2470000  95.4470000  56.8200000  24.1230000  96.3220000  56.8550000
  20.4680000  94.5900000  57.1700000  22.1260000  95.5120000  55.8790000
  14.2540000  23.8540000  89.3190000  14.0970000  23.9730000  87.9270000
  13.2720000  23.2970000  90.1500000  15.4840000  24.3420000  89.9230000
  13.2960000  23.6560000  87.5270000  15.0730000  24.5390000  87.1180000
  12.4590000  22.9790000  89.7770000  13.4520000  23.1950000  91.5370000
  16.4760000  24.9130000  89.0910000  15.6640000  24.2400000  91.3110000
  16.2980000  25.0140000  87.7170000  14.9090000  24.6640000  85.6950000
  12.4600000  22.6230000  92.3690000  14.6830000  23.6830000  92.1420000
  17.2820000  25.2340000  89.4810000  16.4770000  24.5570000  91.6830000
  17.2940000  25.6000000  86.8530000  14.1090000  24.3570000  85.2830000
  15.8880000  25.2150000  84.9330000  12.6390000  22.5220000  93.7440000
  11.6550000  22.3020000  91.9800000  14.8390000  23.5630000  93.5330000
  17.0960000  25.6980000  85.5180000  18.1030000  25.9240000  87.2290000
  15.7670000  25.2800000  83.9930000  11.6430000  21.9360000  94.6070000
  13.8630000  22.9980000  94.3430000  15.6400000  23.8810000  93.9340000
  17.7640000  26.0890000  84.9680000  11.8410000  21.8390000  95.9430000
  10.8330000  21.6120000  94.2320000  14.0270000  22.8730000  95.7650000
  13.0480000  22.3210000  96.5270000  11.1720000  21.4470000  96.4920000
  14.8270000  23.1790000  96.1770000  13.1690000  22.2570000  97.4680000
  14.6920000  38.1840000  19.0350000  14.5350000  38.3030000  17.6430000
  13.7110000  37.6270000  19.8660000  15.9230000  38.6720000  19.6390000
  13.7340000  37.9860000  17.2430000  15.5110000  38.8690000  16.8340000
  12.8970000  37.3100000  19.4930000  13.8900000  37.5250000  21.2530000
  16.9150000  39.2440000  18.8070000  16.1020000  38.5700000  21.0270000
  16.7360000  39.3450000  17.4320000  15.3470000  38.9940000  15.4110000
  12.8980000  36.9530000  22.0850000  15.1210000  38.0130000  21.8580000
  17.7200000  39.5650000  19.1970000  16.9150000  38.8870000  21.3990000
  17.7320000  39.9310000  16.5690000  14.5480000  38.6880000  14.9990000
  16.3260000  39.5450000  14.6490000  13.0770000  36.8520000  23.4600000
  12.0930000  36.6320000  21.6960000  15.2770000  37.8930000  23.2490000
  17.5340000  40.0280000  15.2340000  18.5420000  40.2550000  16.9450000
  16.2050000  39.6100000  13.7090000  12.0810000  36.2660000  24.3230000
  14.3010000  37.3280000  24.0590000  16.0790000  38.2110000  23.6500000
  18.2020000  40.4190000  14.6840000  12.2790000  36.1690000  25.6590000
  11.2710000  35.9420000  23.9480000  14.4650000  37.2030000  25.4810000
  13.4860000  36.6520000  26.2430000  11.6100000  35.7770000  26.2080000
  15.2650000  37.5090000  25.8930000  13.6070000  36.5870000  27.1840000
  17.6270000  54.3970000  92.1420000  17.7840000  54.2770000  93.5330000
  18.6080000  54.9540000  91.3110000  16.3960000  53.9090000  91.5370000
  18.5850000  54.5950000  93.9340000  16.8080000  53.7120000  94.3430000
  19.4220000  55.2710000  91.6830000  18.4290000  55.0560000  89.9230000
  15.4040000  53.3370000  92.3690000  16.2170000  54.0110000  90.1500000
  15.5830000  53.2360000  93.7440000  16.9710000  53.5870000  95.7650000
  19.4210000  55.6280000  89.0910000  17.1980000  54.5680000  89.3190000
  14.5990000  53.0160000  91.9800000  15.4030000  53.6940000  89.7770000
  14.5870000  52.6500000  94.6070000  17.7710000  53.8930000  96.1770000
  15.9920000  53.0360000  96.5270000  19.2420000  55.7290000  87.7170000
  20.2260000  55.9490000  89.4810000  17.0420000  54.6880000  87.9270000
  14.7850000  52.5530000  95.9430000  13.7770000  52.3260000  94.2320000
  16.1140000  52.9710000  97.4680000  20.2380000  56.3150000  86.8530000
  18.0180000  55.2530000  87.1180000  16.2400000  54.3700000  87.5270000
  14.1170000  52.1620000  96.4920000  20.0400000  56.4120000  85.5180000
  21.0480000  56.6390000  87.2290000  17.8540000  55.3780000  85.6950000
  18.8330000  55.9290000  84.9330000  20.7090000  56.8040000  84.9680000
  17.0540000  55.0720000  85.2830000  18.7120000  55.9940000  83.9930000
  17.1260000  51.1200000  78.0850000  17.2820000  51.0010000  79.4760000
  18.1070000  51.6770000  77.2540000  15.8950000  50.6320000  77.4800000
  18.0840000  51.3180000  79.8770000  16.3060000  50.4350000  80.2860000
  18.9210000  51.9950000  77.6270000  17.9280000  51.7790000  75.8670000
  14.9030000  50.0610000  78.3130000  15.7160000  50.7340000  76.0930000
  15.0820000  49.9590000  79.6870000  16.4700000  50.3100000  81.7090000
  18.9200000  52.3510000  75.0350000  16.6970000  51.2910000  75.2620000
  14.0980000  49.7390000  77.9230000  14.9020000  50.4170000  75.7200000
  14.0860000  49.3740000  80.5500000  17.2700000  50.6170000  82.1210000
  15.4910000  49.7590000  82.4710000  18.7410000  52.4520000  73.6600000
  19.7250000  52.6720000  75.4240000  16.5400000  51.4110000  73.8710000
  14.2840000  49.2760000  81.8860000  13.2760000  49.0500000  80.1750000
  15.6120000  49.6940000  83.4110000  19.7370000  53.0380000  72.7970000
  17.5160000  51.9760000  73.0610000  15.7390000  51.0930000  73.4700000
  13.6150000  48.8850000  82.4350000  19.5390000  53.1350000  71.4610000
  20.5470000  53.3620000  73.1720000  17.3530000  52.1010000  71.6380000
  18.3310000  52.6520000  70.8770000  20.2070000  53.5270000  70.9120000
  16.5530000  51.7950000  71.2270000  18.2100000  52.7170000  69.9360000
  19.0990000  69.7540000  92.1420000  19.2560000  69.6350000  93.5330000
  20.0810000  70.3110000  91.3110000  17.8690000  69.2660000  91.5370000
  20.0570000  69.9520000  93.9340000  18.2800000  69.0690000  94.3430000
  20.8940000  70.6290000  91.6830000  19.9010000  70.4130000  89.9230000
  16.8770000  68.6950000  92.3690000  17.6890000  69.3680000  90.1500000
  17.0550000  68.5930000  93.7440000  18.4440000  68.9440000  95.7650000
  20.8930000  70.9850000  89.0910000  18.6700000  69.9250000  89.3190000
  16.0710000  68.3730000  91.9800000  16.8760000  69.0510000  89.7770000
  16.0590000  68.0080000  94.6070000  19.2440000  69.2510000  96.1770000
  17.4650000  68.3930000  96.5270000  20.7140000  71.0860000  87.7170000
  21.6980000  71.3060000  89.4810000  18.5140000  70.0450000  87.9270000
  16.2570000  67.9100000  95.9430000  15.2500000  67.6840000  94.2320000
  17.5860000  68.3280000  97.4680000  21.7100000  71.6720000  86.8530000
  19.4900000  70.6100000  87.1180000  17.7130000  69.7270000  87.5270000
  15.5890000  67.5190000  96.4920000  21.5120000  71.7690000  85.5180000
  22.5200000  71.9960000  87.2290000  19.3260000  70.7350000  85.6950000
  20.3050000  71.2860000  84.9330000  22.1810000  72.1610000  84.9680000
  18.5260000  70.4290000  85.2830000  20.1840000  71.3510000  83.9930000
  17.6360000  68.8980000  19.0350000  17.4800000  69.0180000  17.6430000
  16.6550000  68.3410000  19.8660000  18.8670000  69.3860000  19.6390000
  16.6780000  68.7000000  17.2430000  18.4560000  69.5830000  16.8340000
  15.8420000  68.0240000  19.4930000  16.8340000  68.2390000  21.2530000
  19.8590000  69.9580000  18.8070000  19.0460000  69.2840000  21.0270000
  19.6800000  70.0590000  17.4320000  18.2920000  69.7080000  15.4110000
  15.8430000  67.6680000  22.0850000  18.0650000  68.7270000  21.8580000
  20.6640000  70.2790000  19.1970000  19.8600000  69.6020000  21.3990000
  20.6760000  70.6450000  16.5690000  17.4920000  69.4020000  14.9990000
  19.2710000  70.2590000  14.6490000  16.0210000  67.5670000  23.4600000
  15.0370000  67.3460000  21.6960000  18.2220000  68.6080000  23.2490000
  20.4780000  70.7420000  15.2340000  21.4860000  70.9690000  16.9450000
  19.1500000  70.3240000  13.7090000  15.0250000  66.9810000  24.3230000
  17.2460000  68.0420000  24.0590000  19.0230000  68.9250000  23.6500000
  21.1470000  71.1340000  14.6840000  15.2230000  66.8830000  25.6590000
  14.2150000  66.6570000  23.9480000  17.4100000  67.9170000  25.4810000
  16.4310000  67.3660000  26.2430000  14.5550000  66.4920000  26.2080000
  18.2090000  68.2240000  25.8930000  16.5520000  67.3010000  27.1840000
  18.5670000  72.0040000  35.9140000  18.7230000  71.8850000  37.3060000
  19.5480000  72.5610000  35.0840000  17.3360000  71.5160000  35.3100000
  19.5240000  72.2020000  37.7070000  17.7470000  71.3190000  38.1160000
  20.3610000  72.8780000  35.4560000  19.3680000  72.6630000  33.6960000
  16.3440000  70.9440000  36.1420000  17.1560000  71.6180000  33.9230000
  16.5230000  70.8430000  37.5170000  17.9110000  71.1940000  39.5380000
  20.3600000  73.2350000  32.8640000  18.1380000  72.1750000  33.0920000
  15.5390000  70.6230000  35.7530000  16.3430000  71.3010000  33.5500000
  15.5260000  70.2570000  38.3800000  18.7110000  71.5000000  39.9500000
  16.9320000  70.6430000  40.3000000  20.1820000  73.3360000  31.4890000
  21.1660000  73.5560000  33.2530000  17.9810000  72.2950000  31.7000000
  15.7240000  70.1600000  39.7150000  14.7170000  69.9330000  38.0050000
  17.0530000  70.5780000  41.2410000  21.1780000  73.9220000  30.6260000
  18.9570000  72.8600000  30.8900000  17.1800000  71.9770000  31.3000000
  15.0560000  69.7690000  40.2650000  20.9800000  74.0190000  29.2910000
  21.9870000  74.2460000  31.0020000  18.7930000  72.9850000  29.4680000
  19.7720000  73.5360000  28.7060000  21.6480000  74.4110000  28.7410000
  17.9930000  72.6790000  29.0560000  19.6510000  73.6010000  27.7660000
  20.5720000  85.1110000  92.1420000  20.7280000  84.9920000  93.5330000
  21.5530000  85.6690000  91.3110000  19.3410000  84.6230000  91.5370000
  21.5290000  85.3090000  93.9340000  19.7520000  84.4270000  94.3430000
  22.3660000  85.9860000  91.6830000  21.3730000  85.7710000  89.9230000
  18.3490000  84.0520000  92.3690000  19.1610000  84.7250000  90.1500000
  18.5280000  83.9510000  93.7440000  19.9160000  84.3010000  95.7650000
  22.3650000  86.3420000  89.0910000  20.1430000  85.2830000  89.3190000
  17.5440000  83.7310000  91.9800000  18.3480000  84.4080000  89.7770000
  17.5320000  83.3650000  94.6070000  20.7160000  84.6080000  96.1770000
  18.9370000  83.7500000  96.5270000  22.1870000  86.4430000  87.7170000
  23.1710000  86.6630000  89.4810000  19.9860000  85.4020000  87.9270000
  17.7300000  83.2680000  95.9430000  16.7220000  83.0410000  94.2320000
  19.0580000  83.6850000  97.4680000  23.1830000  87.0290000  86.8530000
  20.9620000  85.9670000  87.1180000  19.1850000  85.0840000  87.5270000
  17.0610000  82.8760000  96.4920000  22.9850000  87.1260000  85.5180000
  23.9920000  87.3530000  87.2290000  20.7980000  86.0930000  85.6950000
  21.7770000  86.6440000  84.9330000  23.6530000  87.5180000  84.9680000
  19.9980000  85.7860000  85.2830000  21.6560000  86.7090000  83.9930000
  12.8890000  38.9860000  77.8980000  13.0590000  38.3090000  79.1220000
  13.8650000  38.9810000  76.8940000  11.6450000  39.7150000  77.6660000
  13.8610000  37.8220000  79.2740000  12.0870000  38.3360000  80.1120000
  14.6780000  38.5080000  77.0250000  13.6940000  39.6610000  75.6810000
  10.6610000  39.7200000  78.6850000  11.4740000  40.3950000  76.4530000
  10.8560000  39.0610000  79.8860000  12.2590000  37.6760000  81.3660000
  14.6790000  39.6560000  74.6620000  12.4500000  40.3900000  75.4490000
   9.8460000  40.1870000  78.5400000  10.6610000  40.8680000  76.3220000
   9.8720000  39.0770000  80.9230000  13.0610000  37.1950000  81.5320000
  11.3010000  37.7190000  82.3240000  14.4830000  40.3150000  73.4620000
  15.4930000  39.1880000  74.8070000  12.2800000  41.0670000  74.2250000
  10.0830000  38.4340000  82.0950000   9.0570000  39.5460000  80.7870000
  11.4390000  37.2740000  83.1520000  15.4670000  40.2980000  72.4240000
  13.2520000  41.0390000  73.2350000  11.4780000  41.5540000  74.0730000
   9.4170000  38.4570000  82.7710000  15.2560000  40.9420000  71.2520000
  16.2820000  39.8290000  72.5610000  13.0800000  41.6990000  71.9810000
  14.0380000  41.6560000  71.0230000  15.9220000  40.9190000  70.5760000
  12.2780000  42.1800000  71.8150000  13.9000000  42.1010000  70.1950000
  13.1240000  43.3880000  63.8410000  13.2940000  42.7110000  65.0650000
  14.1000000  43.3820000  62.8370000  11.8800000  44.1170000  63.6090000
  14.0950000  42.2230000  65.2170000  12.3220000  42.7380000  66.0550000
  14.9130000  42.9100000  62.9680000  13.9290000  44.0620000  61.6240000
  10.8950000  44.1220000  64.6280000  11.7090000  44.7970000  62.3960000
  11.0910000  43.4620000  65.8290000  12.4940000  42.0780000  67.3090000
  14.9130000  44.0580000  60.6050000  12.6850000  44.7920000  61.3920000
  10.0810000  44.5890000  64.4830000  10.8960000  45.2690000  62.2650000
  10.1070000  43.4790000  66.8660000  13.2960000  41.5970000  67.4750000
  11.5360000  42.1210000  68.2680000  14.7180000  44.7170000  59.4050000
  15.7280000  43.5900000  60.7500000  12.5140000  45.4680000  60.1680000
  10.3180000  42.8360000  68.0380000   9.2920000  43.9480000  66.7300000
  11.6740000  41.6760000  69.0960000  15.7020000  44.7000000  58.3670000
  13.4870000  45.4410000  59.1780000  11.7130000  45.9560000  60.0160000
   9.6510000  42.8590000  68.7150000  15.4910000  45.3440000  57.1950000
  16.5170000  44.2310000  58.5040000  13.3150000  46.1010000  57.9250000
  14.2730000  46.0580000  56.9660000  16.1570000  45.3200000  56.5190000
  12.5130000  46.5820000  57.7590000  14.1350000  46.5030000  56.1380000
  17.2740000  90.5840000  35.7270000  17.4450000  89.9070000  36.9520000
  18.2500000  90.5790000  34.7240000  16.0300000  91.3130000  35.4960000
  18.2460000  89.4200000  37.1040000  16.4720000  89.9350000  37.9410000
  19.0640000  90.1060000  34.8550000  18.0790000  91.2590000  33.5110000
  15.0460000  91.3180000  36.5150000  15.8590000  91.9930000  34.2820000
  15.2410000  90.6590000  37.7150000  16.6440000  89.2750000  39.1950000
  19.0640000  91.2540000  32.4920000  16.8350000  91.9880000  33.2790000
  14.2310000  91.7860000  36.3700000  15.0460000  92.4660000  34.1520000
  14.2570000  90.6760000  38.7520000  17.4460000  88.7940000  39.3610000
  15.6860000  89.3180000  40.1540000  18.8680000  91.9130000  31.2910000
  19.8780000  90.7860000  32.6360000  16.6650000  92.6650000  32.0540000
  14.4680000  90.0320000  39.9250000  13.4420000  91.1450000  38.6160000
  15.8250000  88.8730000  40.9820000  19.8520000  91.8960000  30.2540000
  17.6370000  92.6380000  31.0650000  15.8640000  93.1520000  31.9030000
  13.8020000  90.0550000  40.6010000  19.6410000  92.5400000  29.0810000
  20.6670000  91.4280000  30.3900000  17.4660000  93.2980000  29.8110000
  18.4230000  93.2540000  28.8520000  20.3080000  92.5170000  28.4050000
  16.6630000  93.7790000  29.6450000  18.2850000  93.7000000  28.0240000
  17.7750000  93.8610000  49.7840000  17.9460000  93.1840000  51.0090000
  18.7510000  93.8560000  48.7810000  16.5310000  94.5900000  49.5520000
  18.7470000  92.6970000  51.1600000  16.9730000  93.2110000  51.9980000
  19.5650000  93.3830000  48.9110000  18.5810000  94.5360000  47.5670000
  15.5470000  94.5950000  50.5710000  16.3610000  95.2700000  48.3390000
  15.7430000  93.9360000  51.7720000  17.1450000  92.5520000  53.2520000
  19.5650000  94.5310000  46.5480000  17.3360000  95.2650000  47.3360000
  14.7330000  95.0630000  50.4270000  15.5470000  95.7430000  48.2080000
  14.7580000  93.9530000  52.8090000  17.9480000  92.0700000  53.4180000
  16.1870000  92.5950000  54.2110000  19.3690000  95.1900000  45.3480000
  20.3790000  94.0630000  46.6930000  17.1660000  95.9420000  46.1110000
  14.9700000  93.3090000  53.9820000  13.9440000  94.4210000  52.6730000
  16.3260000  92.1490000  55.0390000  20.3540000  95.1730000  44.3110000
  18.1390000  95.9140000  45.1220000  16.3650000  96.4290000  45.9590000
  14.3030000  93.3320000  54.6580000  20.1420000  95.8170000  43.1380000
  21.1680000  94.7040000  44.4470000  17.9670000  96.5740000  43.8680000
  18.9240000  96.5310000  42.9090000  20.8090000  95.7940000  42.4620000
  17.1640000  97.0560000  43.7020000  18.7860000  96.9760000  42.0810000
  18.8400000 105.0950000  89.5060000  18.6700000 105.7720000  88.2820000
  17.8650000 105.1010000  90.5100000  20.0840000 104.3660000  89.7380000
  17.8690000 106.2600000  88.1300000  19.6420000 105.7450000  87.2920000
  17.0510000 105.5730000  90.3790000  18.0350000 104.4210000  91.7230000
  21.0690000 104.3610000  88.7190000  20.2550000 103.6860000  90.9510000
  20.8730000 105.0210000  87.5180000  19.4710000 106.4050000  86.0380000
  17.0510000 104.4250000  92.7420000  19.2790000 103.6910000  91.9550000
  21.8830000 103.8940000  88.8640000  21.0690000 103.2140000  91.0820000
  21.8570000 105.0040000  86.4810000  18.6680000 106.8860000  85.8720000
  20.4280000 106.3620000  85.0800000  17.2460000 103.7660000  93.9420000
  16.2360000 104.8930000  92.5970000  19.4500000 103.0150000  93.1790000
  21.6460000 105.6470000  85.3090000  22.6720000 104.5350000  86.6170000
  20.2900000 106.8070000  84.2520000  16.2620000 103.7830000  94.9800000
  18.4770000 103.0420000  94.1690000  20.2510000 102.5270000  93.3310000
  22.3130000 105.6240000  84.6320000  16.4730000 103.1390000  96.1520000
  15.4470000 104.2520000  94.8430000  18.6490000 102.3820000  95.4230000
  17.6910000 102.4250000  96.3810000  15.8070000 103.1630000  96.8280000
  19.4510000 101.9010000  95.5880000  17.8300000 101.9800000  97.2090000
  15.8640000  79.9080000  47.3360000  15.6940000  80.5850000  46.1110000
  14.8880000  79.9130000  48.3390000  17.1080000  79.1790000  47.5670000
  14.8930000  81.0720000  45.9590000  16.6660000  80.5570000  45.1220000
  14.0750000  80.3850000  48.2080000  15.0590000  79.2330000  49.5520000
  18.0930000  79.1740000  46.5480000  17.2790000  78.4990000  48.7810000
  17.8970000  79.8330000  45.3480000  16.4950000  81.2170000  43.8680000
  14.0750000  79.2380000  50.5710000  16.3030000  78.5040000  49.7840000
  18.9070000  78.7060000  46.6930000  18.0930000  78.0260000  48.9110000
  18.8810000  79.8160000  44.3110000  15.6920000  81.6980000  43.7020000
  17.4520000  81.1740000  42.9090000  14.2700000  78.5780000  51.7720000
  13.2600000  79.7050000  50.4270000  16.4740000  77.8270000  51.0090000
  18.6700000  80.4600000  43.1380000  19.6960000  79.3470000  44.4470000
  17.3140000  81.6190000  42.0810000  13.2860000  78.5950000  52.8090000
  15.5010000  77.8540000  51.9980000  17.2750000  77.3390000  51.1600000
  19.3370000  80.4360000  42.4620000  13.4970000  77.9520000  53.9820000
  12.4710000  79.0640000  52.6730000  15.6730000  77.1940000  53.2520000
  14.7150000  77.2370000  54.2110000  12.8310000  77.9750000  54.6580000
  16.4750000  76.7130000  53.4180000  14.8540000  76.7920000  55.0390000
  16.8670000  86.4610000  75.4490000  16.6960000  87.1380000  74.2250000
  15.8910000  86.4670000  76.4530000  18.1110000  85.7320000  75.6810000
  15.8950000  87.6260000  74.0730000  17.6690000  87.1110000  73.2350000
  15.0770000  86.9390000  76.3220000  16.0620000  85.7860000  77.6660000
  19.0950000  85.7270000  74.6620000  18.2810000  85.0520000  76.8940000
  18.9000000  86.3870000  73.4620000  17.4970000  87.7710000  71.9810000
  15.0770000  85.7910000  78.6850000  17.3060000  85.0570000  77.8980000
  19.9100000  85.2600000  74.8070000  19.0950000  84.5800000  77.0250000
  19.8840000  86.3700000  72.4240000  16.6940000  88.2520000  71.8150000
  18.4550000  87.7280000  71.0230000  15.2730000  85.1320000  79.8860000
  14.2630000  86.2590000  78.5400000  17.4760000  84.3810000  79.1220000
  19.6730000  87.0130000  71.2520000  20.6990000  85.9010000  72.5610000
  18.3160000  88.1730000  70.1950000  14.2890000  85.1490000  80.9230000
  16.5040000  84.4080000  80.1120000  18.2770000  83.8930000  79.2740000
  20.3390000  86.9900000  70.5760000  14.5000000  84.5050000  82.0950000
  13.4740000  85.6180000  80.7870000  16.6750000  83.7480000  81.3660000
  15.7180000  83.7910000  82.3240000  13.8330000  84.5290000  82.7710000
  17.4780000  83.2670000  81.5320000  15.8560000  83.3460000  83.1520000
  16.6000000  87.5860000  47.3360000  16.4300000  88.2630000  46.1110000
  15.6250000  87.5920000  48.3390000  17.8440000  86.8570000  47.5670000
  15.6290000  88.7510000  45.9590000  17.4030000  88.2360000  45.1220000
  14.8110000  88.0640000  48.2080000  15.7950000  86.9110000  49.5520000
  18.8290000  86.8520000  46.5480000  18.0150000  86.1770000  48.7810000
  18.6330000  87.5120000  45.3480000  17.2310000  88.8960000  43.8680000
  14.8110000  86.9160000  50.5710000  17.0390000  86.1820000  49.7840000
  19.6430000  86.3850000  46.6930000  18.8290000  85.7050000  48.9110000
  19.6170000  87.4950000  44.3110000  16.4280000  89.3770000  43.7020000
  18.1880000  88.8530000  42.9090000  15.0060000  86.2570000  51.7720000
  13.9970000  87.3840000  50.4270000  17.2100000  85.5060000  51.0090000
  19.4060000  88.1380000  43.1380000  20.4320000  87.0260000  44.4470000
  18.0500000  89.2980000  42.0810000  14.0220000  86.2740000  52.8090000
  16.2370000  85.5330000  51.9980000  18.0110000  85.0180000  51.1600000
  20.0730000  88.1150000  42.4620000  14.2330000  85.6300000  53.9820000
  13.2080000  86.7430000  52.6730000  16.4090000  84.8730000  53.2520000
  15.4510000  84.9160000  54.2110000  13.5670000  85.6540000  54.6580000
  17.2120000  84.3920000  53.4180000  15.5900000  84.4710000  55.0390000
  17.1020000  90.8630000  61.3920000  16.9310000  91.5400000  60.1680000
  16.1260000  90.8680000  62.3960000  18.3460000  90.1340000  61.6240000
  16.1300000  92.0270000  60.0160000  17.9040000  91.5130000  59.1780000
  15.3120000  91.3410000  62.2650000  16.2960000  90.1880000  63.6090000
  19.3300000  90.1290000  60.6050000  18.5160000  89.4540000  62.8370000
  19.1340000  90.7880000  59.4050000  17.7320000  92.1730000  57.9250000
  15.3120000  90.1930000  64.6280000  17.5410000  89.4590000  63.8410000
  20.1440000  89.6620000  60.7500000  19.3300000  88.9810000  62.9680000
  20.1190000  90.7720000  58.3670000  16.9290000  92.6540000  57.7590000
  18.6900000  92.1300000  56.9660000  15.5080000  89.5340000  65.8290000
  14.4980000  90.6610000  64.4830000  17.7110000  88.7820000  65.0650000
  19.9070000  91.4150000  57.1950000  20.9330000  90.3030000  58.5040000
  18.5510000  92.5750000  56.1380000  14.5230000  89.5510000  66.8660000
  16.7380000  88.8100000  66.0550000  18.5120000  88.2950000  65.2170000
  20.5740000  91.3920000  56.5190000  14.7350000  88.9070000  68.0380000
  13.7090000  90.0200000  66.7300000  16.9100000  88.1500000  67.3090000
  15.9530000  88.1930000  68.2680000  14.0680000  88.9300000  68.7150000
  17.7130000  87.6690000  67.4750000  16.0910000  87.7480000  69.0960000
  16.0990000  84.3100000  33.2790000  15.9290000  84.9860000  32.0540000
  15.1230000  84.3150000  34.2820000  17.3430000  83.5800000  33.5110000
  15.1270000  85.4740000  31.9030000  16.9010000  84.9590000  31.0650000
  14.3100000  84.7870000  34.1520000  15.2940000  83.6350000  35.4960000
  18.3280000  83.5750000  32.4920000  17.5140000  82.9000000  34.7240000
  18.1320000  84.2350000  31.2910000  16.7290000  85.6190000  29.8110000
  14.3100000  83.6400000  36.5150000  16.5380000  82.9050000  35.7270000
  19.1420000  83.1080000  32.6360000  18.3270000  82.4280000  34.8550000
  19.1160000  84.2180000  30.2540000  15.9270000  86.1000000  29.6450000
  17.6870000  85.5760000  28.8520000  14.5050000  82.9800000  37.7150000
  13.4950000  84.1070000  36.3700000  16.7080000  82.2290000  36.9520000
  18.9050000  84.8610000  29.0810000  19.9310000  83.7490000  30.3900000
  17.5490000  86.0210000  28.0240000  13.5210000  82.9970000  38.7520000
  15.7360000  82.2560000  37.9410000  17.5100000  81.7410000  37.1040000
  19.5710000  84.8380000  28.4050000  13.7320000  82.3540000  39.9250000
  12.7060000  83.4660000  38.6160000  15.9080000  81.5960000  39.1950000
  14.9500000  81.6390000  40.1540000  13.0660000  82.3770000  40.6010000
  16.7100000  81.1150000  39.3610000  15.0880000  81.1940000  40.9820000
  10.4450000  27.2830000  19.2220000  10.2750000  27.9590000  17.9980000
   9.4690000  27.2880000  20.2260000  11.6890000  26.5530000  19.4540000
   9.4730000  28.4470000  17.8460000  11.2470000  27.9320000  17.0080000
   8.6560000  27.7600000  20.0950000   9.6400000  26.6080000  21.4390000
  12.6730000  26.5480000  18.4350000  11.8600000  25.8730000  20.6670000
  12.4780000  27.2080000  17.2340000  11.0750000  28.5920000  15.7540000
   8.6550000  26.6120000  22.4580000  10.8840000  25.8780000  21.6710000
  13.4880000  26.0810000  18.5800000  12.6730000  25.4010000  20.7980000
  13.4620000  27.1910000  16.1970000  10.2730000  29.0730000  15.5880000
  12.0330000  28.5490000  14.7950000   8.8510000  25.9530000  23.6580000
   7.8410000  27.0800000  22.3130000  11.0540000  25.2020000  22.8950000
  13.2510000  27.8340000  15.0250000  14.2770000  26.7220000  16.3330000
  11.8950000  28.9940000  13.9670000   7.8670000  25.9700000  24.6960000
  10.0820000  25.2290000  23.8850000  11.8560000  24.7140000  23.0470000
  13.9170000  27.8110000  14.3480000   8.0780000  25.3270000  25.8680000
   7.0520000  26.4390000  24.5590000  10.2540000  24.5690000  25.1380000
   9.2960000  24.6120000  26.0970000   7.4120000  25.3500000  26.5440000
  11.0560000  24.0880000  25.3040000   9.4340000  24.1670000  26.9250000
  11.8860000  32.4320000  49.7840000  12.0570000  31.7550000  51.0090000
  12.8620000  32.4270000  48.7810000  10.6420000  33.1610000  49.5520000
  12.8580000  31.2680000  51.1600000  11.0840000  31.7830000  51.9980000
  13.6760000  31.9540000  48.9110000  12.6920000  33.1070000  47.5670000
   9.6580000  33.1660000  50.5710000  10.4720000  33.8410000  48.3390000
   9.8540000  32.5070000  51.7720000  11.2560000  31.1230000  53.2520000
  13.6760000  33.1020000  46.5480000  11.4480000  33.8360000  47.3360000
   8.8440000  33.6340000  50.4270000   9.6580000  34.3140000  48.2080000
   8.8690000  32.5240000  52.8090000  12.0590000  30.6420000  53.4180000
  10.2980000  31.1660000  54.2110000  13.4800000  33.7610000  45.3480000
  14.4900000  32.6340000  46.6930000  11.2770000  34.5130000  46.1110000
   9.0810000  31.8800000  53.9820000   8.0550000  32.9930000  52.6730000
  10.4370000  30.7210000  55.0390000  14.4650000  33.7450000  44.3110000
  12.2500000  34.4860000  45.1220000  10.4760000  35.0000000  45.9590000
   8.4140000  31.9030000  54.6580000  14.2530000  34.3880000  43.1380000
  15.2790000  33.2760000  44.4470000  12.0780000  35.1460000  43.8680000
  13.0360000  35.1030000  42.9090000  14.9200000  34.3650000  42.4620000
  11.2750000  35.6270000  43.7020000  12.8970000  35.5480000  42.0810000
   9.9440000  24.0060000   5.1650000   9.7730000  24.6820000   3.9410000
   8.9680000  24.0110000   6.1690000  11.1880000  23.2770000   5.3970000
   8.9720000  25.1700000   3.7890000  10.7460000  24.6550000   2.9510000
   8.1540000  24.4830000   6.0380000   9.1390000  23.3310000   7.3820000
  12.1720000  23.2720000   4.3780000  11.3580000  22.5960000   6.6100000
  11.9770000  23.9310000   3.1770000  10.5740000  25.3150000   1.6970000
   8.1540000  23.3360000   8.4010000  10.3830000  22.6020000   7.6140000
  12.9870000  22.8040000   4.5230000  12.1720000  22.1240000   6.7410000
  12.9610000  23.9140000   2.1400000   9.7710000  25.7960000   1.5310000
  11.5320000  25.2720000   0.7390000   8.3500000  22.6760000   9.6010000
   7.3400000  23.8030000   8.2560000  10.5530000  21.9250000   8.8380000
  12.7500000  24.5580000   0.9680000  13.7760000  23.4450000   2.2760000
  11.3930000  25.7170000  -0.0890000   7.3660000  22.6930000  10.6390000
   9.5810000  21.9520000   9.8280000  11.3540000  21.4370000   8.9900000
  13.4160000  24.5340000   0.2920000   7.5770000  22.0500000  11.8110000
   6.5510000  23.1620000  10.5020000   9.7520000  21.2920000  11.0820000
   8.7950000  21.3350000  12.0400000   6.9100000  22.0730000  12.4870000
  10.5550000  20.8110000  11.2470000   8.9330000  20.8900000  12.8680000
  10.6800000  31.6840000   5.1650000  10.5090000  32.3610000   3.9410000
   9.7040000  31.6890000   6.1690000  11.9240000  30.9550000   5.3970000
   9.7080000  32.8490000   3.7890000  11.4820000  32.3340000   2.9510000
   8.8900000  32.1620000   6.0380000   9.8750000  31.0090000   7.3820000
  12.9080000  30.9500000   4.3780000  12.0950000  30.2750000   6.6100000
  12.7130000  31.6100000   3.1770000  11.3100000  32.9940000   1.6970000
   8.8900000  31.0140000   8.4010000  11.1190000  30.2800000   7.6140000
  13.7230000  30.4830000   4.5230000  12.9080000  29.8030000   6.7410000
  13.6970000  31.5930000   2.1400000  10.5080000  33.4750000   1.5310000
  12.2680000  32.9510000   0.7390000   9.0860000  30.3550000   9.6010000
   8.0760000  31.4820000   8.2560000  11.2890000  29.6030000   8.8380000
  13.4860000  32.2360000   0.9680000  14.5120000  31.1240000   2.2760000
  12.1290000  33.3960000  -0.0890000   8.1020000  30.3720000  10.6390000
  10.3170000  29.6310000   9.8280000  12.0900000  29.1160000   8.9900000
  14.1520000  32.2130000   0.2920000   8.3130000  29.7280000  11.8110000
   7.2870000  30.8410000  10.5020000  10.4880000  28.9710000  11.0820000
   9.5310000  29.0140000  12.0400000   7.6460000  29.7520000  12.4870000
  11.2910000  28.4900000  11.2470000   9.6690000  28.5690000  12.8680000
  12.4190000  45.9170000  33.2790000  12.2480000  46.5930000  32.0540000
  11.4430000  45.9220000  34.2820000  13.6630000  45.1870000  33.5110000
  11.4470000  47.0810000  31.9030000  13.2210000  46.5660000  31.0650000
  10.6290000  46.3940000  34.1520000  11.6130000  45.2420000  35.4960000
  14.6470000  45.1830000  32.4920000  13.8330000  44.5070000  34.7240000
  14.4510000  45.8420000  31.2910000  13.0490000  47.2260000  29.8110000
  10.6290000  45.2470000  36.5150000  12.8570000  44.5120000  35.7270000
  15.4610000  44.7150000  32.6360000  14.6470000  44.0350000  34.8550000
  15.4360000  45.8250000  30.2540000  12.2460000  47.7070000  29.6450000
  14.0070000  47.1830000  28.8520000  10.8250000  44.5870000  37.7150000
   9.8150000  45.7140000  36.3700000  13.0280000  43.8360000  36.9520000
  15.2240000  46.4680000  29.0810000  16.2500000  45.3560000  30.3900000
  13.8680000  47.6280000  28.0240000   9.8400000  44.6040000  38.7520000
  12.0550000  43.8630000  37.9410000  13.8290000  43.3480000  37.1040000
  15.8910000  46.4450000  28.4050000  10.0520000  43.9610000  39.9250000
   9.0260000  45.0730000  38.6160000  12.2270000  43.2030000  39.1950000
  11.2690000  43.2460000  40.1540000   9.3850000  43.9840000  40.6010000
  13.0300000  42.7220000  39.3610000  11.4080000  42.8010000  40.9820000
  13.4210000  52.4700000  61.3920000  13.2510000  53.1470000  60.1680000
  12.4450000  52.4750000  62.3960000  14.6650000  51.7410000  61.6240000
  12.4490000  53.6340000  60.0160000  14.2230000  53.1200000  59.1780000
  11.6320000  52.9480000  62.2650000  12.6160000  51.7950000  63.6090000
  15.6490000  51.7360000  60.6050000  14.8360000  51.0610000  62.8370000
  15.4540000  52.3950000  59.4050000  14.0510000  53.7800000  57.9250000
  11.6320000  51.8000000  64.6280000  13.8600000  51.0660000  63.8410000
  16.4640000  51.2690000  60.7500000  15.6490000  50.5890000  62.9680000
  16.4380000  52.3790000  58.3670000  13.2490000  54.2610000  57.7590000
  15.0090000  53.7370000  56.9660000  11.8270000  51.1410000  65.8290000
  10.8170000  52.2680000  64.4830000  14.0300000  50.3890000  65.0650000
  16.2270000  53.0220000  57.1950000  17.2530000  51.9100000  58.5040000
  14.8710000  54.1820000  56.1380000  10.8430000  51.1580000  66.8660000
  13.0580000  50.4170000  66.0550000  14.8320000  49.9020000  65.2170000
  16.8930000  52.9990000  56.5190000  11.0540000  50.5140000  68.0380000
  10.0280000  51.6270000  66.7300000  13.2300000  49.7570000  67.3090000
  12.2720000  49.8000000  68.2680000  10.3880000  50.5370000  68.7150000
  14.0320000  49.2760000  67.4750000  12.4100000  49.3550000  69.0960000
  16.3340000  88.7110000  19.2220000  16.1640000  89.3880000  17.9980000
  15.3580000  88.7160000  20.2260000  17.5780000  87.9820000  19.4540000
  15.3620000  89.8760000  17.8460000  17.1360000  89.3610000  17.0080000
  14.5450000  89.1890000  20.0950000  15.5290000  88.0360000  21.4390000
  18.5620000  87.9770000  18.4350000  17.7490000  87.3020000  20.6670000
  18.3670000  88.6370000  17.2340000  16.9640000  90.0210000  15.7540000
  14.5440000  88.0410000  22.4580000  16.7730000  87.3070000  21.6710000
  19.3770000  87.5100000  18.5800000  18.5620000  86.8300000  20.7980000
  19.3510000  88.6200000  16.1970000  16.1620000  90.5020000  15.5880000
  17.9220000  89.9780000  14.7950000  14.7400000  87.3820000  23.6580000
  13.7300000  88.5090000  22.3130000  16.9430000  86.6300000  22.8950000
  19.1400000  89.2630000  15.0250000  20.1660000  88.1510000  16.3330000
  17.7840000  90.4230000  13.9670000  13.7560000  87.3990000  24.6960000
  15.9710000  86.6580000  23.8850000  17.7450000  86.1430000  23.0470000
  19.8060000  89.2400000  14.3480000  13.9670000  86.7550000  25.8680000
  12.9410000  87.8680000  24.5590000  16.1430000  85.9980000  25.1380000
  15.1850000  86.0410000  26.0970000  13.3010000  86.7790000  26.5440000
  16.9450000  85.5170000  25.3040000  15.3230000  85.5960000  26.9250000
  15.8330000  85.4340000   5.1650000  15.6620000  86.1110000   3.9410000
  14.8570000  85.4400000   6.1690000  17.0770000  84.7050000   5.3970000
  14.8610000  86.5990000   3.7890000  16.6350000  86.0840000   2.9510000
  14.0430000  85.9120000   6.0380000  15.0280000  84.7600000   7.3820000
  18.0610000  84.7000000   4.3780000  17.2470000  84.0250000   6.6100000
  17.8660000  85.3600000   3.1770000  16.4630000  86.7440000   1.6970000
  14.0430000  84.7640000   8.4010000  16.2720000  84.0300000   7.6140000
  18.8750000  84.2330000   4.5230000  18.0610000  83.5530000   6.7410000
  18.8500000  85.3430000   2.1400000  15.6600000  87.2250000   1.5310000
  17.4210000  86.7010000   0.7390000  14.2390000  84.1050000   9.6010000
  13.2290000  85.2320000   8.2560000  16.4420000  83.3540000   8.8380000
  18.6390000  85.9860000   0.9680000  19.6640000  84.8740000   2.2760000
  17.2820000  87.1460000  -0.0890000  13.2550000  84.1220000  10.6390000
  15.4690000  83.3810000   9.8280000  17.2430000  82.8660000   8.9900000
  19.3050000  85.9630000   0.2920000  13.4660000  83.4780000  11.8110000
  12.4400000  84.5910000  10.5020000  15.6410000  82.7210000  11.0820000
  14.6840000  82.7640000  12.0400000  12.7990000  83.5020000  12.4870000
  16.4440000  82.2400000  11.2470000  14.8220000  82.3190000  12.8680000
  17.8380000  98.5420000  61.3920000  17.6670000  99.2190000  60.1680000
  16.8620000  98.5470000  62.3960000  19.0820000  97.8130000  61.6240000
  16.8660000  99.7060000  60.0160000  18.6400000  99.1910000  59.1780000
  16.0480000  99.0190000  62.2650000  17.0330000  97.8670000  63.6090000
  20.0660000  97.8080000  60.6050000  19.2520000  97.1330000  62.8370000
  19.8710000  98.4670000  59.4050000  18.4680000  99.8510000  57.9250000
  16.0480000  97.8720000  64.6280000  18.2770000  97.1380000  63.8410000
  20.8810000  97.3400000  60.7500000  20.0660000  96.6600000  62.9680000
  20.8550000  98.4500000  58.3670000  17.6650000 100.3320000  57.7590000
  19.4260000  99.8080000  56.9660000  16.2440000  97.2130000  65.8290000
  15.2340000  98.3390000  64.4830000  18.4470000  96.4610000  65.0650000
  20.6440000  99.0940000  57.1950000  21.6700000  97.9810000  58.5040000
  19.2870000 100.2530000  56.1380000  15.2600000  97.2290000  66.8660000
  17.4750000  96.4880000  66.0550000  19.2480000  95.9730000  65.2170000
  21.3100000  99.0700000  56.5190000  15.4710000  96.5860000  68.0380000
  14.4450000  97.6980000  66.7300000  17.6460000  95.8280000  67.3090000
  16.6890000  95.8710000  68.2680000  14.8040000  96.6090000  68.7150000
  18.4490000  95.3470000  67.4750000  16.8270000  95.4260000  69.0960000
  14.1570000  60.1490000  61.3920000  13.9870000  60.8260000  60.1680000
  13.1810000  60.1540000  62.3960000  15.4010000  59.4200000  61.6240000
  13.1860000  61.3130000  60.0160000  14.9590000  60.7980000  59.1780000
  12.3680000  60.6260000  62.2650000  13.3520000  59.4740000  63.6090000
  16.3860000  59.4150000  60.6050000  15.5720000  58.7400000  62.8370000
  16.1900000  60.0740000  59.4050000  14.7870000  61.4580000  57.9250000
  12.3680000  59.4790000  64.6280000  14.5960000  58.7450000  63.8410000
  17.2000000  58.9470000  60.7500000  16.3850000  58.2670000  62.9680000
  17.1740000  60.0570000  58.3670000  13.9850000  61.9390000  57.7590000
  15.7450000  61.4150000  56.9660000  12.5630000  58.8200000  65.8290000
  11.5530000  59.9460000  64.4830000  14.7670000  58.0680000  65.0650000
  16.9630000  60.7010000  57.1950000  17.9890000  59.5880000  58.5040000
  15.6070000  61.8600000  56.1380000  11.5790000  58.8360000  66.8660000
  13.7940000  58.0950000  66.0550000  15.5680000  57.5800000  65.2170000
  17.6300000  60.6770000  56.5190000  11.7900000  58.1930000  68.0380000
  10.7640000  59.3050000  66.7300000  13.9660000  57.4350000  67.3090000
  13.0080000  57.4780000  68.2680000  11.1240000  58.2160000  68.7150000
  14.7680000  56.9540000  67.4750000  13.1460000  57.0330000  69.0960000
  15.8330000  69.7000000  77.8980000  16.0040000  69.0230000  79.1220000
  16.8090000  69.6950000  76.8940000  14.5890000  70.4290000  77.6660000
  16.8050000  68.5360000  79.2740000  15.0310000  69.0510000  80.1120000
  17.6230000  69.2230000  77.0250000  16.6390000  70.3750000  75.6810000
  13.6050000  70.4340000  78.6850000  14.4190000  71.1090000  76.4530000
  13.8010000  69.7750000  79.8860000  15.2030000  68.3910000  81.3660000
  17.6230000  70.3700000  74.6620000  15.3950000  71.1040000  75.4490000
  12.7910000  70.9020000  78.5400000  13.6050000  71.5820000  76.3220000
  12.8160000  69.7920000  80.9230000  16.0060000  67.9100000  81.5320000
  14.2450000  68.4340000  82.3240000  17.4270000  71.0290000  73.4620000
  18.4370000  69.9030000  74.8070000  15.2240000  71.7810000  74.2250000
  13.0280000  69.1480000  82.0950000  12.0020000  70.2610000  80.7870000
  14.3840000  67.9890000  83.1520000  18.4120000  71.0130000  72.4240000
  16.1970000  71.7540000  73.2350000  14.4230000  72.2690000  74.0730000
  12.3610000  69.1720000  82.7710000  18.2000000  71.6560000  71.2520000
  19.2260000  70.5440000  72.5610000  16.0250000  72.4140000  71.9810000
  16.9830000  72.3710000  71.0230000  18.8670000  71.6330000  70.5760000
  15.2220000  72.8950000  71.8150000  16.8440000  72.8160000  70.1950000
  14.6270000  68.9520000  33.2790000  14.4560000  69.6290000  32.0540000
  13.6510000  68.9580000  34.2820000  15.8710000  68.2230000  33.5110000
  13.6550000  70.1170000  31.9030000  15.4290000  69.6020000  31.0650000
  12.8370000  69.4300000  34.1520000  13.8220000  68.2770000  35.4960000
  16.8550000  68.2180000  32.4920000  16.0420000  67.5430000  34.7240000
  16.6600000  68.8780000  31.2910000  15.2570000  70.2620000  29.8110000
  12.8370000  68.2820000  36.5150000  15.0660000  67.5480000  35.7270000
  17.6700000  67.7510000  32.6360000  16.8550000  67.0710000  34.8550000
  17.6440000  68.8610000  30.2540000  14.4550000  70.7430000  29.6450000
  16.2150000  70.2190000  28.8520000  13.0330000  67.6230000  37.7150000
  12.0230000  68.7500000  36.3700000  15.2360000  66.8720000  36.9520000
  17.4330000  69.5040000  29.0810000  18.4590000  68.3920000  30.3900000
  16.0760000  70.6640000  28.0240000  12.0490000  67.6400000  38.7520000
  14.2640000  66.8990000  37.9410000  16.0370000  66.3840000  37.1040000
  18.0990000  69.4810000  28.4050000  12.2600000  66.9960000  39.9250000
  11.2340000  68.1090000  38.6160000  14.4350000  66.2390000  39.1950000
  13.4780000  66.2820000  40.1540000  11.5930000  67.0200000  40.6010000
  15.2380000  65.7580000  39.3610000  13.6160000  65.8370000  40.9820000
  15.3010000  71.9500000  21.6710000  15.4710000  71.2730000  22.8950000
  16.2760000  71.9450000  20.6670000  14.0570000  72.6790000  21.4390000
  16.2720000  70.7860000  23.0470000  14.4990000  71.3010000  23.8850000
  17.0900000  71.4720000  20.7980000  16.1060000  72.6250000  19.4540000
  13.0720000  72.6840000  22.4580000  13.8860000  73.3590000  20.2260000
  13.2680000  72.0250000  23.6580000  14.6700000  70.6410000  25.1380000
  17.0900000  72.6200000  18.4350000  14.8620000  73.3540000  19.2220000
  12.2580000  73.1520000  22.3130000  13.0720000  73.8320000  20.0950000
  12.2840000  72.0420000  24.6960000  15.4730000  70.1590000  25.3040000
  13.7130000  70.6840000  26.0970000  16.8950000  73.2790000  17.2340000
  17.9040000  72.1520000  18.5800000  14.6910000  74.0310000  17.9980000
  12.4950000  71.3980000  25.8680000  11.4690000  72.5110000  24.5590000
  13.8510000  70.2390000  26.9250000  17.8790000  73.2620000  16.1970000
  15.6640000  74.0040000  17.0080000  13.8900000  74.5180000  17.8460000
  11.8280000  71.4210000  26.5440000  17.6680000  73.9060000  15.0250000
  18.6930000  72.7940000  16.3330000  15.4920000  74.6630000  15.7540000
  16.4500000  74.6200000  14.7950000  18.3340000  73.8830000  14.3480000
  14.6890000  75.1450000  15.5880000  16.3110000  75.0660000  13.9670000
  14.3600000  70.0770000   5.1650000  14.1900000  70.7540000   3.9410000
  13.3850000  70.0820000   6.1690000  15.6050000  69.3480000   5.3970000
  13.3890000  71.2420000   3.7890000  15.1630000  70.7270000   2.9510000
  12.5710000  70.5550000   6.0380000  13.5550000  69.4020000   7.3820000
  16.5890000  69.3430000   4.3780000  15.7750000  68.6680000   6.6100000
  16.3930000  70.0020000   3.1770000  14.9910000  71.3870000   1.6970000
  12.5710000  69.4070000   8.4010000  14.7990000  68.6730000   7.6140000
  17.4030000  68.8760000   4.5230000  16.5890000  68.1960000   6.7410000
  17.3780000  69.9860000   2.1400000  14.1880000  71.8680000   1.5310000
  15.9480000  71.3440000   0.7390000  12.7670000  68.7480000   9.6010000
  11.7570000  69.8750000   8.2560000  14.9700000  67.9960000   8.8380000
  17.1660000  70.6290000   0.9680000  18.1920000  69.5170000   2.2760000
  15.8100000  71.7890000  -0.0890000  11.7820000  68.7650000  10.6390000
  13.9970000  68.0240000   9.8280000  15.7710000  67.5090000   8.9900000
  17.8330000  70.6060000   0.2920000  11.9940000  68.1210000  11.8110000
  10.9680000  69.2340000  10.5020000  14.1690000  67.3640000  11.0820000
  13.2110000  67.4070000  12.0400000  11.3270000  68.1450000  12.4870000
  14.9720000  66.8830000  11.2470000  13.3500000  66.9620000  12.8680000
  15.5360000  76.3520000   7.6140000  15.7060000  75.6750000   8.8380000
  16.5110000  76.3470000   6.6100000  14.2910000  77.0810000   7.3820000
  16.5070000  75.1880000   8.9900000  14.7330000  75.7020000   9.8280000
  17.3250000  75.8740000   6.7410000  16.3410000  77.0270000   5.3970000
  13.3070000  77.0860000   8.4010000  14.1210000  77.7610000   6.1690000
  13.5030000  76.4270000   9.6010000  14.9050000  75.0420000  11.0820000
  17.3250000  77.0220000   4.3780000  15.0970000  77.7560000   5.1650000
  12.4930000  77.5540000   8.2560000  13.3070000  78.2340000   6.0380000
  12.5180000  76.4430000  10.6390000  15.7080000  74.5610000  11.2470000
  13.9480000  75.0850000  12.0400000  17.1290000  77.6810000   3.1770000
  18.1390000  76.5540000   4.5230000  14.9260000  78.4330000   3.9410000
  12.7300000  75.8000000  11.8110000  11.7040000  76.9120000  10.5020000
  14.0860000  74.6400000  12.8680000  18.1140000  77.6640000   2.1400000
  15.8990000  78.4050000   2.9510000  14.1250000  78.9200000   3.7890000
  12.0630000  75.8230000  12.4870000  17.9020000  78.3080000   0.9680000
  18.9280000  77.1950000   2.2760000  15.7270000  79.0650000   1.6970000
  16.6850000  79.0220000   0.7390000  18.5690000  78.2850000   0.2920000
  14.9240000  79.5460000   1.5310000  16.5460000  79.4670000  -0.0890000
  17.6030000  94.1400000  75.4490000  17.4320000  94.8170000  74.2250000
  16.6270000  94.1450000  76.4530000  18.8470000  93.4110000  75.6810000
  16.6310000  95.3040000  74.0730000  18.4050000  94.7900000  73.2350000
  15.8130000  94.6180000  76.3220000  16.7980000  93.4650000  77.6660000
  19.8310000  93.4060000  74.6620000  19.0180000  92.7310000  76.8940000
  19.6360000  94.0650000  73.4620000  18.2330000  95.4490000  71.9810000
  15.8130000  93.4700000  78.6850000  18.0420000  92.7360000  77.8980000
  20.6460000  92.9380000  74.8070000  19.8310000  92.2580000  77.0250000
  20.6200000  94.0480000  72.4240000  17.4310000  95.9310000  71.8150000
  19.1910000  95.4060000  71.0230000  16.0090000  92.8110000  79.8860000
  14.9990000  93.9380000  78.5400000  18.2120000  92.0590000  79.1220000
  20.4090000  94.6920000  71.2520000  21.4350000  93.5800000  72.5610000
  19.0520000  95.8510000  70.1950000  15.0250000  92.8280000  80.9230000
  17.2400000  92.0860000  80.1120000  19.0130000  91.5720000  79.2740000
  21.0750000  94.6690000  70.5760000  15.2360000  92.1840000  82.0950000
  14.2100000  93.2960000  80.7870000  17.4110000  91.4270000  81.3660000
  16.4540000  91.4700000  82.3240000  14.5690000  92.2070000  82.7710000
  18.2140000  90.9450000  81.5320000  16.5920000  91.0250000  83.1520000
   8.9100000   7.2440000   7.6140000   9.0810000   6.5680000   8.8380000
   9.8860000   7.2390000   6.6100000   7.6660000   7.9740000   7.3820000
   9.8820000   6.0800000   8.9900000   8.1080000   6.5950000   9.8280000
  10.7000000   6.7670000   6.7410000   9.7160000   7.9190000   5.3970000
   6.6820000   7.9780000   8.4010000   7.4960000   8.6540000   6.1690000
   6.8780000   7.3190000   9.6010000   8.2800000   5.9350000  11.0820000
  10.7000000   7.9140000   4.3780000   8.4720000   8.6490000   5.1650000
   5.8680000   8.4460000   8.2560000   6.6820000   9.1260000   6.0380000
   5.8930000   7.3360000  10.6390000   9.0830000   5.4540000  11.2470000
   7.3220000   5.9780000  12.0400000  10.5040000   8.5740000   3.1770000
  11.5140000   7.4470000   4.5230000   8.3010000   9.3250000   3.9410000
   6.1050000   6.6930000  11.8110000   5.0790000   7.8050000  10.5020000
   7.4610000   5.5330000  12.8680000  11.4890000   8.5570000   2.1400000
   9.2740000   9.2980000   2.9510000   7.5000000   9.8130000   3.7890000
   5.4380000   6.7160000  12.4870000  11.2770000   9.2000000   0.9680000
  12.3030000   8.0880000   2.2760000   9.1020000   9.9580000   1.6970000
  10.0600000   9.9150000   0.7390000  11.9440000   9.1770000   0.2920000
   8.2990000  10.4390000   1.5310000   9.9210000  10.3600000  -0.0890000
  10.4770000  21.7560000  61.3920000  10.3060000  22.4330000  60.1680000
   9.5010000  21.7610000  62.3960000  11.7210000  21.0270000  61.6240000
   9.5050000  22.9200000  60.0160000  11.2790000  22.4050000  59.1780000
   8.6870000  22.2330000  62.2650000   9.6710000  21.0810000  63.6090000
  12.7050000  21.0220000  60.6050000  11.8910000  20.3470000  62.8370000
  12.5090000  21.6810000  59.4050000  11.1070000  23.0650000  57.9250000
   8.6870000  21.0860000  64.6280000  10.9150000  20.3520000  63.8410000
  13.5190000  20.5540000  60.7500000  12.7050000  19.8740000  62.9680000
  13.4940000  21.6640000  58.3670000  10.3040000  23.5460000  57.7590000
  12.0650000  23.0220000  56.9660000   8.8830000  20.4270000  65.8290000
   7.8730000  21.5530000  64.4830000  11.0860000  19.6750000  65.0650000
  13.2820000  22.3080000  57.1950000  14.3080000  21.1950000  58.5040000
  11.9260000  23.4670000  56.1380000   7.8980000  20.4430000  66.8660000
  10.1130000  19.7020000  66.0550000  11.8870000  19.1880000  65.2170000
  13.9490000  22.2840000  56.5190000   8.1100000  19.8000000  68.0380000
   7.0840000  20.9120000  66.7300000  10.2850000  19.0420000  67.3090000
   9.3270000  19.0850000  68.2680000   7.4430000  19.8230000  68.7150000
  11.0880000  18.5610000  67.4750000   9.4660000  18.6400000  69.0960000
  11.9180000  26.9050000  91.9550000  12.0880000  26.2290000  93.1790000
  12.8940000  26.9000000  90.9510000  10.6740000  27.6350000  91.7230000
  12.8900000  25.7410000  93.3310000  11.1160000  26.2560000  94.1690000
  13.7070000  26.4280000  91.0820000  12.7230000  27.5800000  89.7380000
   9.6900000  27.6390000  92.7420000  10.5030000  28.3150000  90.5100000
   9.8850000  26.9800000  93.9420000  11.2880000  25.5960000  95.4230000
  13.7080000  27.5750000  88.7190000  11.4790000  28.3100000  89.5060000
   8.8750000  28.1070000  92.5970000   9.6900000  28.7870000  90.3790000
   8.9010000  26.9970000  94.9800000  12.0900000  25.1150000  95.5880000
  10.3300000  25.6390000  96.3810000  13.5120000  28.2350000  87.5180000
  14.5220000  27.1080000  88.8640000  11.3090000  28.9860000  88.2820000
   9.1120000  26.3540000  96.1520000   8.0860000  27.4660000  94.8430000
  10.4680000  25.1940000  97.2090000  14.4960000  28.2180000  86.4810000
  12.2810000  28.9590000  87.2920000  10.5070000  29.4740000  88.1300000
   8.4460000  26.3770000  96.8280000  14.2850000  28.8610000  85.3090000
  15.3110000  27.7490000  86.6170000  12.1090000  29.6190000  86.0380000
  13.0670000  29.5760000  85.0800000  14.9510000  28.8380000  84.6320000
  11.3070000  30.1000000  85.8720000  12.9290000  30.0210000  84.2520000
   9.9750000  18.4790000  47.3360000   9.8050000  19.1560000  46.1110000
   9.0000000  18.4840000  48.3390000  11.2190000  17.7500000  47.5670000
   9.0040000  19.6430000  45.9590000  10.7770000  19.1290000  45.1220000
   8.1860000  18.9570000  48.2080000   9.1700000  17.8040000  49.5520000
  12.2040000  17.7450000  46.5480000  11.3900000  17.0700000  48.7810000
  12.0080000  18.4040000  45.3480000  10.6060000  19.7880000  43.8680000
   8.1860000  17.8090000  50.5710000  10.4140000  17.0750000  49.7840000
  13.0180000  17.2770000  46.6930000  12.2040000  16.5970000  48.9110000
  12.9920000  18.3870000  44.3110000   9.8030000  20.2700000  43.7020000
  11.5630000  19.7450000  42.9090000   8.3810000  17.1500000  51.7720000
   7.3710000  18.2770000  50.4270000  10.5850000  16.3980000  51.0090000
  12.7810000  19.0310000  43.1380000  13.8070000  17.9190000  44.4470000
  11.4250000  20.1900000  42.0810000   7.3970000  17.1670000  52.8090000
   9.6120000  16.4250000  51.9980000  11.3860000  15.9110000  51.1600000
  13.4480000  19.0080000  42.4620000   7.6080000  16.5230000  53.9820000
   6.5820000  17.6350000  52.6730000   9.7840000  15.7660000  53.2520000
   8.8260000  15.8090000  54.2110000   6.9420000  16.5460000  54.6580000
  10.5870000  15.2840000  53.4180000   8.9650000  15.3630000  55.0390000
  10.1480000  18.2000000  21.6710000  10.3180000  17.5230000  22.8950000
  11.1240000  18.1950000  20.6670000   8.9040000  18.9290000  21.4390000
  11.1190000  17.0360000  23.0470000   9.3460000  17.5500000  23.8850000
  11.9370000  17.7220000  20.7980000  10.9530000  18.8750000  19.4540000
   7.9190000  18.9340000  22.4580000   8.7330000  19.6090000  20.2260000
   8.1150000  18.2750000  23.6580000   9.5170000  16.8900000  25.1380000
  11.9370000  18.8700000  18.4350000   9.7090000  19.6040000  19.2220000
   7.1050000  19.4020000  22.3130000   7.9190000  20.0820000  20.0950000
   7.1310000  18.2910000  24.6960000  10.3200000  16.4090000  25.3040000
   8.5600000  16.9340000  26.0970000  11.7420000  19.5290000  17.2340000
  12.7520000  18.4020000  18.5800000   9.5380000  20.2810000  17.9980000
   7.3420000  17.6480000  25.8680000   6.3160000  18.7600000  24.5590000
   8.6980000  16.4880000  26.9250000  12.7260000  19.5120000  16.1970000
  10.5110000  20.2530000  17.0080000   8.7370000  20.7680000  17.8460000
   6.6750000  17.6710000  26.5440000  12.5150000  20.1560000  15.0250000
  13.5410000  19.0430000  16.3330000  10.3390000  20.9130000  15.7540000
  11.2970000  20.8700000  14.7950000  13.1810000  20.1330000  14.3480000
   9.5370000  21.3940000  15.5880000  11.1580000  21.3150000  13.9670000
  10.7110000  26.1580000  47.3360000  10.5410000  26.8340000  46.1110000
   9.7360000  26.1630000  48.3390000  11.9560000  25.4280000  47.5670000
   9.7400000  27.3220000  45.9590000  11.5140000  26.8070000  45.1220000
   8.9220000  26.6350000  48.2080000   9.9060000  25.4830000  49.5520000
  12.9400000  25.4240000  46.5480000  12.1260000  24.7480000  48.7810000
  12.7440000  26.0830000  45.3480000  11.3420000  27.4670000  43.8680000
   8.9220000  25.4880000  50.5710000  11.1500000  24.7540000  49.7840000
  13.7540000  24.9560000  46.6930000  12.9400000  24.2760000  48.9110000
  13.7280000  26.0660000  44.3110000  10.5390000  27.9480000  43.7020000
  12.2990000  27.4240000  42.9090000   9.1180000  24.8280000  51.7720000
   8.1080000  25.9550000  50.4270000  11.3210000  24.0770000  51.0090000
  13.5170000  26.7100000  43.1380000  14.5430000  25.5970000  44.4470000
  12.1610000  27.8690000  42.0810000   8.1330000  24.8450000  52.8090000
  10.3480000  24.1040000  51.9980000  12.1220000  23.5890000  51.1600000
  14.1840000  26.6860000  42.4620000   8.3440000  24.2020000  53.9820000
   7.3190000  25.3140000  52.6730000  10.5200000  23.4440000  53.2520000
   9.5620000  23.4870000  54.2110000   7.6780000  24.2250000  54.6580000
  11.3230000  22.9630000  53.4180000   9.7010000  23.0420000  55.0390000
   9.2080000  16.3270000   5.1650000   9.0370000  17.0040000   3.9410000
   8.2320000  16.3320000   6.1690000  10.4520000  15.5980000   5.3970000
   8.2360000  17.4910000   3.7890000  10.0100000  16.9770000   2.9510000
   7.4180000  16.8050000   6.0380000   8.4020000  15.6520000   7.3820000
  11.4360000  15.5930000   4.3780000  10.6220000  14.9180000   6.6100000
  11.2400000  16.2520000   3.1770000   9.8380000  17.6360000   1.6970000
   7.4180000  15.6570000   8.4010000   9.6470000  14.9230000   7.6140000
  12.2500000  15.1250000   4.5230000  11.4360000  14.4450000   6.7410000
  12.2250000  16.2350000   2.1400000   9.0350000  18.1180000   1.5310000
  10.7960000  17.5930000   0.7390000   7.6140000  14.9980000   9.6010000
   6.6040000  16.1250000   8.2560000   9.8170000  14.2460000   8.8380000
  12.0130000  16.8790000   0.9680000  13.0390000  15.7670000   2.2760000
  10.6570000  18.0390000  -0.0890000   6.6300000  15.0150000  10.6390000
   8.8440000  14.2740000   9.8280000  10.6180000  13.7590000   8.9900000
  12.6800000  16.8560000   0.2920000   6.8410000  14.3710000  11.8110000
   5.8150000  15.4840000  10.5020000   9.0160000  13.6140000  11.0820000
   8.0590000  13.6570000  12.0400000   6.1740000  14.3940000  12.4870000
   9.8190000  13.1320000  11.2470000   8.1970000  13.2120000  12.8680000
  11.6520000  28.0300000  63.8410000  11.8220000  27.3540000  65.0650000
  12.6270000  28.0250000  62.8370000  10.4080000  28.7590000  63.6090000
  12.6230000  26.8660000  65.2170000  10.8490000  27.3810000  66.0550000
  13.4410000  27.5530000  62.9680000  12.4570000  28.7050000  61.6240000
   9.4230000  28.7640000  64.6280000  10.2370000  29.4400000  62.3960000
   9.6190000  28.1050000  65.8290000  11.0210000  26.7210000  67.3090000
  13.4410000  28.7000000  60.6050000  11.2130000  29.4340000  61.3920000
   8.6090000  29.2320000  64.4830000   9.4230000  29.9120000  62.2650000
   8.6350000  28.1220000  66.8660000  11.8240000  26.2400000  67.4750000
  10.0640000  26.7640000  68.2680000  13.2460000  29.3600000  59.4050000
  14.2550000  28.2330000  60.7500000  11.0420000  30.1110000  60.1680000
   8.8460000  27.4780000  68.0380000   7.8200000  28.5910000  66.7300000
  10.2020000  26.3190000  69.0960000  14.2300000  29.3430000  58.3670000
  12.0150000  30.0840000  59.1780000  10.2410000  30.5990000  60.0160000
   8.1790000  27.5020000  68.7150000  14.0190000  29.9860000  57.1950000
  15.0440000  28.8740000  58.5040000  11.8430000  30.7440000  57.9250000
  12.8010000  30.7010000  56.9660000  14.6850000  29.9630000  56.5190000
  11.0400000  31.2250000  57.7590000  12.6620000  31.1460000  56.1380000
  12.1210000  36.8340000  35.7270000  12.2920000  36.1570000  36.9520000
  13.0970000  36.8290000  34.7240000  10.8770000  37.5630000  35.4960000
  13.0930000  35.6700000  37.1040000  11.3190000  36.1840000  37.9410000
  13.9110000  36.3560000  34.8550000  12.9260000  37.5090000  33.5110000
   9.8930000  37.5680000  36.5150000  10.7070000  38.2430000  34.2820000
  10.0880000  36.9090000  37.7150000  11.4910000  35.5250000  39.1950000
  13.9110000  37.5040000  32.4920000  11.6820000  38.2380000  33.2790000
   9.0790000  38.0360000  36.3700000   9.8930000  38.7160000  34.1520000
   9.1040000  36.9260000  38.7520000  12.2940000  35.0430000  39.3610000
  10.5330000  35.5680000  40.1540000  13.7150000  38.1630000  31.2910000
  14.7250000  37.0360000  32.6360000  11.5120000  38.9150000  32.0540000
   9.3150000  36.2820000  39.9250000   8.2900000  37.3940000  38.6160000
  10.6720000  35.1220000  40.9820000  14.6990000  38.1460000  30.2540000
  12.4850000  38.8870000  31.0650000  10.7110000  39.4020000  31.9030000
   8.6490000  36.3050000  40.6010000  14.4880000  38.7900000  29.0810000
  15.5140000  37.6770000  30.3900000  12.3130000  39.5470000  29.8110000
  13.2700000  39.5040000  28.8520000  15.1550000  38.7670000  28.4050000
  11.5100000  40.0290000  29.6450000  13.1320000  39.9490000  28.0240000
  12.6230000  40.1110000  49.7840000  12.7930000  39.4340000  51.0090000
  13.5980000  40.1060000  48.7810000  11.3780000  40.8400000  49.5520000
  13.5940000  38.9460000  51.1600000  11.8200000  39.4610000  51.9980000
  14.4120000  39.6330000  48.9110000  13.4280000  40.7860000  47.5670000
  10.3940000  40.8450000  50.5710000  11.2080000  41.5200000  48.3390000
  10.5900000  40.1860000  51.7720000  11.9920000  38.8010000  53.2520000
  14.4120000  40.7810000  46.5480000  12.1840000  41.5150000  47.3360000
   9.5800000  41.3120000  50.4270000  10.3940000  41.9920000  48.2080000
   9.6060000  40.2020000  52.8090000  12.7950000  38.3200000  53.4180000
  11.0350000  38.8440000  54.2110000  14.2160000  41.4400000  45.3480000
  15.2260000  40.3130000  46.6930000  12.0130000  42.1920000  46.1110000
   9.8170000  39.5590000  53.9820000   8.7910000  40.6710000  52.6730000
  11.1730000  38.3990000  55.0390000  15.2010000  41.4230000  44.3110000
  12.9860000  42.1640000  45.1220000  11.2120000  42.6790000  45.9590000
   9.1500000  39.5820000  54.6580000  14.9900000  42.0670000  43.1380000
  16.0150000  40.9540000  44.4470000  12.8140000  42.8240000  43.8680000
  13.7720000  42.7810000  42.9090000  15.6560000  42.0430000  42.4620000
  12.0110000  43.3050000  43.7020000  13.6330000  43.2260000  42.0810000
  13.6250000  46.6640000  77.8980000  13.7960000  45.9880000  79.1220000
  14.6010000  46.6590000  76.8940000  12.3810000  47.3940000  77.6660000
  14.5970000  45.5000000  79.2740000  12.8230000  46.0150000  80.1120000
  15.4150000  46.1870000  77.0250000  14.4300000  47.3390000  75.6810000
  11.3970000  47.3980000  78.6850000  12.2100000  48.0740000  76.4530000
  11.5920000  46.7390000  79.8860000  12.9950000  45.3550000  81.3660000
  15.4150000  47.3340000  74.6620000  13.1860000  48.0680000  75.4490000
  10.5820000  47.8660000  78.5400000  11.3970000  48.5460000  76.3220000
  10.6080000  46.7560000  80.9230000  13.7970000  44.8740000  81.5320000
  12.0370000  45.3980000  82.3240000  15.2190000  47.9940000  73.4620000
  16.2290000  46.8670000  74.8070000  13.0160000  48.7450000  74.2250000
  10.8190000  46.1120000  82.0950000   9.7930000  47.2250000  80.7870000
  12.1760000  44.9530000  83.1520000  16.2030000  47.9770000  72.4240000
  13.9880000  48.7180000  73.2350000  12.2150000  49.2330000  74.0730000
  10.1530000  46.1360000  82.7710000  15.9920000  48.6200000  71.2520000
  17.0180000  47.5080000  72.5610000  13.8170000  49.3780000  71.9810000
  14.7740000  49.3350000  71.0230000  16.6590000  48.5970000  70.5760000
  13.0140000  49.8590000  71.8150000  14.6360000  49.7800000  70.1950000
  12.3560000  41.2360000  21.6710000  12.5270000  40.5590000  22.8950000
  13.3320000  41.2300000  20.6670000  11.1120000  41.9650000  21.4390000
  13.3280000  40.0710000  23.0470000  11.5540000  40.5860000  23.8850000
  14.1460000  40.7580000  20.7980000  13.1610000  41.9110000  19.4540000
  10.1280000  41.9700000  22.4580000  10.9410000  42.6450000  20.2260000
  10.3230000  41.3100000  23.6580000  11.7260000  39.9260000  25.1380000
  14.1460000  41.9060000  18.4350000  11.9170000  42.6400000  19.2220000
   9.3130000  42.4370000  22.3130000  10.1280000  43.1170000  20.0950000
   9.3390000  41.3270000  24.6960000  12.5280000  39.4450000  25.3040000
  10.7680000  39.9690000  26.0970000  13.9500000  42.5650000  17.2340000
  14.9600000  41.4380000  18.5800000  11.7470000  43.3160000  17.9980000
   9.5500000  40.6840000  25.8680000   8.5240000  41.7960000  24.5590000
  10.9070000  39.5240000  26.9250000  14.9340000  42.5480000  16.1970000
  12.7190000  43.2890000  17.0080000  10.9460000  43.8040000  17.8460000
   8.8840000  40.7070000  26.5440000  14.7230000  43.1920000  15.0250000
  15.7490000  42.0790000  16.3330000  12.5480000  43.9490000  15.7540000
  13.5050000  43.9060000  14.7950000  15.3900000  43.1680000  14.3480000
  11.7450000  44.4300000  15.5880000  13.3670000  44.3510000  13.9670000
  12.9200000  49.1930000  47.3360000  12.7490000  49.8700000  46.1110000
  11.9440000  49.1990000  48.3390000  14.1640000  48.4640000  47.5670000
  11.9480000  50.3580000  45.9590000  13.7220000  49.8430000  45.1220000
  11.1300000  49.6710000  48.2080000  12.1150000  48.5180000  49.5520000
  15.1480000  48.4590000  46.5480000  14.3340000  47.7840000  48.7810000
  14.9530000  49.1190000  45.3480000  13.5500000  50.5030000  43.8680000
  11.1300000  48.5230000  50.5710000  13.3590000  47.7890000  49.7840000
  15.9630000  47.9920000  46.6930000  15.1480000  47.3120000  48.9110000
  15.9370000  49.1020000  44.3110000  12.7470000  50.9840000  43.7020000
  14.5080000  50.4600000  42.9090000  11.3260000  47.8640000  51.7720000
  10.3160000  48.9910000  50.4270000  13.5290000  47.1130000  51.0090000
  15.7260000  49.7450000  43.1380000  16.7520000  48.6330000  44.4470000
  14.3690000  50.9050000  42.0810000  10.3420000  47.8810000  52.8090000
  12.5570000  47.1400000  51.9980000  14.3300000  46.6250000  51.1600000
  16.3920000  49.7220000  42.4620000  10.5530000  47.2370000  53.9820000
   9.5270000  48.3500000  52.6730000  12.7280000  46.4800000  53.2520000
  11.7710000  46.5230000  54.2110000   9.8860000  47.2610000  54.6580000
  13.5310000  45.9990000  53.4180000  11.9090000  46.0780000  55.0390000
  11.4160000  39.3630000   5.1650000  11.2460000  40.0400000   3.9410000
  10.4400000  39.3680000   6.1690000  12.6600000  38.6340000   5.3970000
  10.4440000  40.5270000   3.7890000  12.2180000  40.0120000   2.9510000
   9.6270000  39.8410000   6.0380000  10.6110000  38.6880000   7.3820000
  13.6440000  38.6290000   4.3780000  12.8310000  37.9540000   6.6100000
  13.4490000  39.2880000   3.1770000  12.0460000  40.6720000   1.6970000
   9.6260000  38.6930000   8.4010000  11.8550000  37.9590000   7.6140000
  14.4590000  38.1610000   4.5230000  13.6440000  37.4810000   6.7410000
  14.4330000  39.2710000   2.1400000  11.2440000  41.1530000   1.5310000
  13.0040000  40.6290000   0.7390000   9.8220000  38.0340000   9.6010000
   8.8120000  39.1610000   8.2560000  12.0250000  37.2820000   8.8380000
  14.2220000  39.9150000   0.9680000  15.2480000  38.8020000   2.2760000
  12.8660000  41.0740000  -0.0890000   8.8380000  38.0500000  10.6390000
  11.0530000  37.3090000   9.8280000  12.8270000  36.7950000   8.9900000
  14.8880000  39.8920000   0.2920000   9.0490000  37.4070000  11.8110000
   8.0230000  38.5190000  10.5020000  11.2250000  36.6490000  11.0820000
  10.2670000  36.6920000  12.0400000   8.3830000  37.4300000  12.4870000
  12.0270000  36.1680000  11.2470000  10.4050000  36.2470000  12.8680000
  14.3610000  54.3430000  77.8980000  14.5320000  53.6660000  79.1220000
  15.3370000  54.3380000  76.8940000  13.1170000  55.0720000  77.6660000
  15.3330000  53.1790000  79.2740000  13.5590000  53.6930000  80.1120000
  16.1510000  53.8650000  77.0250000  15.1660000  55.0180000  75.6810000
  12.1330000  55.0770000  78.6850000  12.9470000  55.7520000  76.4530000
  12.3280000  54.4180000  79.8860000  13.7310000  53.0340000  81.3660000
  16.1510000  55.0130000  74.6620000  13.9220000  55.7470000  75.4490000
  11.3180000  55.5450000  78.5400000  12.1330000  56.2250000  76.3220000
  11.3440000  54.4350000  80.9230000  14.5340000  52.5520000  81.5320000
  12.7730000  53.0770000  82.3240000  15.9550000  55.6720000  73.4620000
  16.9650000  54.5450000  74.8070000  13.7520000  56.4240000  74.2250000
  11.5550000  53.7910000  82.0950000  10.5290000  54.9030000  80.7870000
  12.9120000  52.6320000  83.1520000  16.9390000  55.6550000  72.4240000
  14.7240000  56.3970000  73.2350000  12.9510000  56.9110000  74.0730000
  10.8890000  53.8140000  82.7710000  16.7280000  56.2990000  71.2520000
  17.7540000  55.1870000  72.5610000  14.5530000  57.0560000  71.9810000
  15.5100000  57.0130000  71.0230000  17.3950000  56.2760000  70.5760000
  13.7500000  57.5380000  71.8150000  15.3720000  57.4580000  70.1950000
  14.8620000  57.6200000  91.9550000  15.0330000  56.9430000  93.1790000
  15.8380000  57.6150000  90.9510000  13.6180000  58.3490000  91.7230000
  15.8340000  56.4560000  93.3310000  14.0600000  56.9700000  94.1690000
  16.6520000  57.1420000  91.0820000  15.6680000  58.2950000  89.7380000
  12.6340000  58.3540000  92.7420000  13.4480000  59.0290000  90.5100000
  12.8300000  57.6950000  93.9420000  14.2320000  56.3100000  95.4230000
  16.6520000  58.2900000  88.7190000  14.4240000  59.0240000  89.5060000
  11.8200000  58.8220000  92.5970000  12.6340000  59.5020000  90.3790000
  11.8450000  57.7110000  94.9800000  15.0350000  55.8290000  95.5880000
  13.2740000  56.3530000  96.3810000  16.4560000  58.9490000  87.5180000
  17.4660000  57.8220000  88.8640000  14.2530000  59.7010000  88.2820000
  12.0570000  57.0680000  96.1520000  11.0310000  58.1800000  94.8430000
  13.4130000  55.9080000  97.2090000  17.4410000  58.9320000  86.4810000
  15.2260000  59.6730000  87.2920000  13.4520000  60.1880000  88.1300000
  11.3900000  57.0910000  96.8280000  17.2290000  59.5760000  85.3090000
  18.2550000  58.4630000  86.6170000  15.0540000  60.3330000  86.0380000
  16.0120000  60.2900000  85.0800000  17.8960000  59.5530000  84.6320000
  14.2510000  60.8140000  85.8720000  15.8730000  60.7350000  84.2520000
  18.7780000 100.4150000  77.8980000  18.9480000  99.7380000  79.1220000
  19.7540000 100.4090000  76.8940000  17.5340000 101.1440000  77.6660000
  19.7500000  99.2500000  79.2740000  17.9760000  99.7650000  80.1120000
  20.5670000  99.9370000  77.0250000  19.5830000 101.0900000  75.6810000
  16.5490000 101.1490000  78.6850000  17.3630000 101.8240000  76.4530000
  16.7450000 100.4890000  79.8860000  18.1480000  99.1050000  81.3660000
  20.5670000 101.0850000  74.6620000  18.3390000 101.8190000  75.4490000
  15.7350000 101.6160000  78.5400000  16.5500000 102.2960000  76.3220000
  15.7610000 100.5060000  80.9230000  18.9500000  98.6240000  81.5320000
  17.1900000  99.1480000  82.3240000  20.3720000 101.7440000  73.4620000
  21.3820000 100.6170000  74.8070000  18.1690000 102.4950000  74.2250000
  15.9720000  99.8630000  82.0950000  14.9460000 100.9750000  80.7870000
  17.3280000  98.7030000  83.1520000  21.3560000 101.7270000  72.4240000
  19.1410000 102.4680000  73.2350000  17.3670000 102.9830000  74.0730000
  15.3060000  99.8860000  82.7710000  21.1450000 102.3710000  71.2520000
  22.1710000 101.2580000  72.5610000  18.9690000 103.1280000  71.9810000
  19.9270000 103.0850000  71.0230000  21.8110000 102.3470000  70.5760000
  18.1670000 103.6090000  71.8150000  19.7890000 103.5300000  70.1950000
  12.6530000  50.3180000  19.2220000  12.4830000  50.9950000  17.9980000
  11.6780000  50.3230000  20.2260000  13.8970000  49.5890000  19.4540000
  11.6820000  51.4830000  17.8460000  13.4560000  50.9680000  17.0080000
  10.8640000  50.7960000  20.0950000  11.8480000  49.6430000  21.4390000
  14.8820000  49.5840000  18.4350000  14.0680000  48.9090000  20.6670000
  14.6860000  50.2440000  17.2340000  13.2840000  51.6280000  15.7540000
  10.8640000  49.6480000  22.4580000  13.0920000  48.9140000  21.6710000
  15.6960000  49.1170000  18.5800000  14.8820000  48.4370000  20.7980000
  15.6700000  50.2270000  16.1970000  12.4810000  52.1090000  15.5880000
  14.2410000  51.5850000  14.7950000  11.0590000  48.9890000  23.6580000
  10.0500000  50.1160000  22.3130000  13.2630000  48.2380000  22.8950000
  15.4590000  50.8700000  15.0250000  16.4850000  49.7580000  16.3330000
  14.1030000  52.0300000  13.9670000  10.0750000  49.0060000  24.6960000
  12.2900000  48.2650000  23.8850000  14.0640000  47.7500000  23.0470000
  16.1260000  50.8470000  14.3480000  10.2860000  48.3620000  25.8680000
   9.2610000  49.4750000  24.5590000  12.4620000  47.6050000  25.1380000
  11.5040000  47.6480000  26.0970000   9.6200000  48.3860000  26.5440000
  13.2650000  47.1240000  25.3040000  11.6430000  47.2030000  26.9250000
  13.1550000  53.5950000  33.2790000  12.9840000  54.2720000  32.0540000
  12.1790000  53.6000000  34.2820000  14.3990000  52.8660000  33.5110000
  12.1830000  54.7590000  31.9030000  13.9570000  54.2450000  31.0650000
  11.3650000  54.0730000  34.1520000  12.3490000  52.9200000  35.4960000
  15.3830000  52.8610000  32.4920000  14.5690000  52.1860000  34.7240000
  15.1870000  53.5200000  31.2910000  13.7850000  54.9050000  29.8110000
  11.3650000  52.9250000  36.5150000  13.5940000  52.1910000  35.7270000
  16.1970000  52.3930000  32.6360000  15.3830000  51.7130000  34.8550000
  16.1720000  53.5040000  30.2540000  12.9820000  55.3860000  29.6450000
  14.7430000  54.8620000  28.8520000  11.5610000  52.2660000  37.7150000
  10.5510000  53.3930000  36.3700000  13.7640000  51.5140000  36.9520000
  15.9600000  54.1470000  29.0810000  16.9860000  53.0350000  30.3900000
  14.6040000  55.3070000  28.0240000  10.5770000  52.2830000  38.7520000
  12.7910000  51.5420000  37.9410000  14.5650000  51.0270000  37.1040000
  16.6270000  54.1240000  28.4050000  10.7880000  51.6390000  39.9250000
   9.7620000  52.7520000  38.6160000  12.9630000  50.8820000  39.1950000
  12.0060000  50.9250000  40.1540000  10.1210000  51.6620000  40.6010000
  13.7660000  50.4010000  39.3610000  12.1440000  50.4800000  40.9820000
  14.0950000  55.4680000  49.7840000  14.2650000  54.7910000  51.0090000
  15.0710000  55.4630000  48.7810000  12.8510000  56.1970000  49.5520000
  15.0660000  54.3040000  51.1600000  13.2930000  54.8180000  51.9980000
  15.8840000  54.9900000  48.9110000  14.9000000  56.1430000  47.5670000
  11.8660000  56.2020000  50.5710000  12.6800000  56.8770000  48.3390000
  12.0620000  55.5430000  51.7720000  13.4640000  54.1590000  53.2520000
  15.8840000  56.1380000  46.5480000  13.6560000  56.8720000  47.3360000
  11.0520000  56.6700000  50.4270000  11.8660000  57.3500000  48.2080000
  11.0780000  55.5600000  52.8090000  14.2670000  53.6770000  53.4180000
  12.5070000  54.2020000  54.2110000  15.6890000  56.7970000  45.3480000
  16.6990000  55.6700000  46.6930000  13.4850000  57.5490000  46.1110000
  11.2890000  54.9160000  53.9820000  10.2630000  56.0280000  52.6730000
  12.6450000  53.7560000  55.0390000  16.6730000  56.7800000  44.3110000
  14.4580000  57.5220000  45.1220000  12.6840000  58.0360000  45.9590000
  10.6220000  54.9390000  54.6580000  16.4620000  57.4240000  43.1380000
  17.4880000  56.3110000  44.4470000  14.2860000  58.1810000  43.8680000
  15.2440000  58.1380000  42.9090000  17.1280000  57.4010000  42.4620000
  13.4840000  58.6630000  43.7020000  15.1050000  58.5830000  42.0810000
  14.6580000  63.4260000  75.4490000  14.4880000  64.1020000  74.2250000
  13.6830000  63.4310000  76.4530000  15.9030000  62.6970000  75.6810000
  13.6870000  64.5900000  74.0730000  15.4610000  64.0750000  73.2350000
  12.8690000  63.9030000  76.3220000  13.8530000  62.7510000  77.6660000
  16.8870000  62.6920000  74.6620000  16.0730000  62.0160000  76.8940000
  16.6910000  63.3510000  73.4620000  15.2890000  64.7350000  71.9810000
  12.8690000  62.7560000  78.6850000  15.0970000  62.0220000  77.8980000
  17.7010000  62.2240000  74.8070000  16.8870000  61.5440000  77.0250000
  17.6750000  63.3340000  72.4240000  14.4860000  65.2160000  71.8150000
  16.2460000  64.6920000  71.0230000  13.0650000  62.0960000  79.8860000
  12.0550000  63.2230000  78.5400000  15.2680000  61.3450000  79.1220000
  17.4640000  63.9780000  71.2520000  18.4900000  62.8650000  72.5610000
  16.1080000  65.1370000  70.1950000  12.0800000  62.1130000  80.9230000
  14.2950000  61.3720000  80.1120000  16.0690000  60.8570000  79.2740000
  18.1310000  63.9540000  70.5760000  12.2910000  61.4700000  82.0950000
  11.2660000  62.5820000  80.7870000  14.4670000  60.7120000  81.3660000
  13.5090000  60.7550000  82.3240000  11.6250000  61.4930000  82.7710000
  15.2700000  60.2310000  81.5320000  13.6480000  60.3100000  83.1520000
  14.3300000  59.8700000  35.7270000  14.5000000  59.1930000  36.9520000
  15.3050000  59.8650000  34.7240000  13.0860000  60.5990000  35.4960000
  15.3010000  58.7050000  37.1040000  13.5280000  59.2200000  37.9410000
  16.1190000  59.3920000  34.8550000  15.1350000  60.5450000  33.5110000
  12.1010000  60.6040000  36.5150000  12.9150000  61.2790000  34.2820000
  12.2970000  59.9440000  37.7150000  13.6990000  58.5600000  39.1950000
  16.1190000  60.5400000  32.4920000  13.8910000  61.2740000  33.2790000
  11.2870000  61.0710000  36.3700000  12.1010000  61.7510000  34.1520000
  11.3130000  59.9610000  38.7520000  14.5020000  58.0790000  39.3610000
  12.7420000  58.6030000  40.1540000  15.9240000  61.1990000  31.2910000
  16.9340000  60.0720000  32.6360000  13.7200000  61.9500000  32.0540000
  11.5240000  59.3180000  39.9250000  10.4980000  60.4300000  38.6160000
  12.8800000  58.1580000  40.9820000  16.9080000  61.1820000  30.2540000
  14.6930000  61.9230000  31.0650000  12.9190000  62.4380000  31.9030000
  10.8570000  59.3410000  40.6010000  16.6970000  61.8260000  29.0810000
  17.7230000  60.7130000  30.3900000  14.5210000  62.5830000  29.8110000
  15.4790000  62.5400000  28.8520000  17.3630000  61.8020000  28.4050000
  13.7180000  63.0640000  29.6450000  15.3400000  62.9850000  28.0240000
  14.3920000  64.5510000  47.3360000  14.2220000  65.2270000  46.1110000
  13.4160000  64.5560000  48.3390000  15.6360000  63.8210000  47.5670000
  13.4200000  65.7150000  45.9590000  15.1940000  65.2000000  45.1220000
  12.6030000  65.0280000  48.2080000  13.5870000  63.8760000  49.5520000
  16.6200000  63.8170000  46.5480000  15.8070000  63.1410000  48.7810000
  16.4250000  64.4760000  45.3480000  15.0220000  65.8600000  43.8680000
  12.6020000  63.8810000  50.5710000  14.8310000  63.1460000  49.7840000
  17.4350000  63.3490000  46.6930000  16.6200000  62.6690000  48.9110000
  17.4090000  64.4590000  44.3110000  14.2200000  66.3410000  43.7020000
  15.9800000  65.8170000  42.9090000  12.7980000  63.2210000  51.7720000
  11.7880000  64.3480000  50.4270000  15.0010000  62.4700000  51.0090000
  17.1980000  65.1020000  43.1380000  18.2240000  63.9900000  44.4470000
  15.8420000  66.2620000  42.0810000  11.8140000  63.2380000  52.8090000
  14.0290000  62.4970000  51.9980000  15.8030000  61.9820000  51.1600000
  17.8640000  65.0790000  42.4620000  12.0250000  62.5950000  53.9820000
  10.9990000  63.7070000  52.6730000  14.2010000  61.8370000  53.2520000
  13.2430000  61.8800000  54.2110000  11.3590000  62.6180000  54.6580000
  15.0030000  61.3560000  53.4180000  13.3810000  61.4350000  55.0390000
  15.3320000  66.4230000  63.8410000  15.5030000  65.7470000  65.0650000
  16.3080000  66.4180000  62.8370000  14.0880000  67.1520000  63.6090000
  16.3040000  65.2590000  65.2170000  14.5300000  65.7740000  66.0550000
  17.1220000  65.9460000  62.9680000  16.1370000  67.0980000  61.6240000
  13.1040000  67.1570000  64.6280000  13.9180000  67.8330000  62.3960000
  13.2990000  66.4980000  65.8290000  14.7020000  65.1140000  67.3090000
  17.1220000  67.0930000  60.6050000  14.8930000  67.8270000  61.3920000
  12.2890000  67.6250000  64.4830000  13.1040000  68.3050000  62.2650000
  12.3150000  66.5150000  66.8660000  15.5040000  64.6330000  67.4750000
  13.7440000  65.1570000  68.2680000  16.9260000  67.7530000  59.4050000
  17.9360000  66.6260000  60.7500000  14.7230000  68.5040000  60.1680000
  12.5260000  65.8710000  68.0380000  11.5000000  66.9840000  66.7300000
  13.8830000  64.7120000  69.0960000  17.9100000  67.7360000  58.3670000
  15.6950000  68.4770000  59.1780000  13.9220000  68.9920000  60.0160000
  11.8600000  65.8950000  68.7150000  17.6990000  68.3790000  57.1950000
  18.7250000  67.2670000  58.5040000  15.5240000  69.1370000  57.9250000
  16.4810000  69.0940000  56.9660000  18.3660000  68.3560000  56.5190000
  14.7210000  69.6180000  57.7590000  16.3430000  69.5390000  56.1380000
  13.3270000  53.3160000   7.6140000  13.4980000  52.6390000   8.8380000
  14.3030000  53.3110000   6.6100000  12.0830000  54.0450000   7.3820000
  14.2990000  52.1520000   8.9900000  12.5250000  52.6660000   9.8280000
  15.1170000  52.8380000   6.7410000  14.1320000  53.9910000   5.3970000
  11.0990000  54.0500000   8.4010000  11.9120000  54.7250000   6.1690000
  11.2940000  53.3910000   9.6010000  12.6970000  52.0070000  11.0820000
  15.1170000  53.9860000   4.3780000  12.8880000  54.7200000   5.1650000
  10.2840000  54.5180000   8.2560000  11.0990000  55.1980000   6.0380000
  10.3100000  53.4080000  10.6390000  13.4990000  51.5250000  11.2470000
  11.7390000  52.0500000  12.0400000  14.9210000  54.6450000   3.1770000
  15.9310000  53.5180000   4.5230000  12.7180000  55.3970000   3.9410000
  10.5210000  52.7640000  11.8110000   9.4950000  53.8770000  10.5020000
  11.8780000  51.6050000  12.8680000  15.9050000  54.6280000   2.1400000
  13.6900000  55.3700000   2.9510000  11.9170000  55.8840000   3.7890000
   9.8550000  52.7870000  12.4870000  15.6940000  55.2720000   0.9680000
  16.7200000  54.1600000   2.2760000  13.5190000  56.0290000   1.6970000
  14.4760000  55.9860000   0.7390000  16.3610000  55.2490000   0.2920000
  12.7160000  56.5110000   1.5310000  14.3380000  56.4320000  -0.0890000
  15.1280000  72.2290000  47.3360000  14.9580000  72.9060000  46.1110000
  14.1520000  72.2340000  48.3390000  16.3720000  71.5000000  47.5670000
  14.1570000  73.3930000  45.9590000  15.9300000  72.8790000  45.1220000
  13.3390000  72.7070000  48.2080000  14.3230000  71.5540000  49.5520000
  17.3570000  71.4950000  46.5480000  16.5430000  70.8200000  48.7810000
  17.1610000  72.1540000  45.3480000  15.7580000  73.5390000  43.8680000
  13.3390000  71.5590000  50.5710000  15.5670000  70.8250000  49.7840000
  18.1710000  71.0270000  46.6930000  17.3560000  70.3470000  48.9110000
  18.1450000  72.1380000  44.3110000  14.9560000  74.0200000  43.7020000
  16.7160000  73.4960000  42.9090000  13.5340000  70.9000000  51.7720000
  12.5240000  72.0270000  50.4270000  15.7370000  70.1480000  51.0090000
  17.9340000  72.7810000  43.1380000  18.9600000  71.6690000  44.4470000
  16.5780000  73.9410000  42.0810000  12.5500000  70.9170000  52.8090000
  14.7650000  70.1760000  51.9980000  16.5390000  69.6610000  51.1600000
  18.6000000  72.7580000  42.4620000  12.7610000  70.2730000  53.9820000
  11.7350000  71.3860000  52.6730000  14.9370000  69.5160000  53.2520000
  13.9790000  69.5590000  54.2110000  12.0950000  70.2960000  54.6580000
  15.7390000  69.0350000  53.4180000  14.1170000  69.1140000  55.0390000
  15.6290000  75.5060000  61.3920000  15.4590000  76.1830000  60.1680000
  14.6540000  75.5110000  62.3960000  16.8730000  74.7770000  61.6240000
  14.6580000  76.6700000  60.0160000  16.4320000  76.1560000  59.1780000
  13.8400000  75.9840000  62.2650000  14.8240000  74.8310000  63.6090000
  17.8580000  74.7720000  60.6050000  17.0440000  74.0970000  62.8370000
  17.6620000  75.4310000  59.4050000  16.2600000  76.8150000  57.9250000
  13.8400000  74.8360000  64.6280000  16.0680000  74.1020000  63.8410000
  18.6720000  74.3040000  60.7500000  17.8580000  73.6240000  62.9680000
  18.6460000  75.4140000  58.3670000  15.4570000  77.2970000  57.7590000
  17.2170000  76.7720000  56.9660000  14.0350000  74.1770000  65.8290000
  13.0260000  75.3040000  64.4830000  16.2390000  73.4250000  65.0650000
  18.4350000  76.0580000  57.1950000  19.4610000  74.9460000  58.5040000
  17.0790000  77.2170000  56.1380000  13.0510000  74.1940000  66.8660000
  15.2660000  73.4520000  66.0550000  17.0400000  72.9380000  65.2170000
  19.1020000  76.0350000  56.5190000  13.2620000  73.5500000  68.0380000
  12.2370000  74.6620000  66.7300000  15.4380000  72.7930000  67.3090000
  14.4800000  72.8360000  68.2680000  12.5960000  73.5730000  68.7150000
  16.2410000  72.3110000  67.4750000  14.6190000  72.3910000  69.0960000
  16.1310000  78.7830000  75.4490000  15.9600000  79.4600000  74.2250000
  15.1550000  78.7880000  76.4530000  17.3750000  78.0540000  75.6810000
  15.1590000  79.9470000  74.0730000  16.9330000  79.4320000  73.2350000
  14.3410000  79.2600000  76.3220000  15.3250000  78.1080000  77.6660000
  18.3590000  78.0490000  74.6620000  17.5450000  77.3740000  76.8940000
  18.1630000  78.7080000  73.4620000  16.7610000  80.0920000  71.9810000
  14.3410000  78.1130000  78.6850000  16.5700000  77.3790000  77.8980000
  19.1730000  77.5810000  74.8070000  18.3590000  76.9010000  77.0250000
  19.1480000  78.6910000  72.4240000  15.9580000  80.5730000  71.8150000
  17.7190000  80.0490000  71.0230000  14.5370000  77.4540000  79.8860000
  13.5270000  78.5800000  78.5400000  16.7400000  76.7020000  79.1220000
  18.9370000  79.3350000  71.2520000  19.9620000  78.2220000  72.5610000
  17.5800000  80.4940000  70.1950000  13.5530000  77.4700000  80.9230000
  15.7670000  76.7290000  80.1120000  17.5410000  76.2150000  79.2740000
  19.6030000  79.3120000  70.5760000  13.7640000  76.8270000  82.0950000
  12.7380000  77.9390000  80.7870000  15.9390000  76.0690000  81.3660000
  14.9820000  76.1120000  82.3240000  13.0970000  76.8500000  82.7710000
  16.7420000  75.5880000  81.5320000  15.1200000  75.6670000  83.1520000
  15.3630000  76.6310000  33.2790000  15.1930000  77.3080000  32.0540000
  14.3870000  76.6360000  34.2820000  16.6070000  75.9020000  33.5110000
  14.3910000  77.7950000  31.9030000  16.1650000  77.2800000  31.0650000
  13.5740000  77.1090000  34.1520000  14.5580000  75.9560000  35.4960000
  17.5910000  75.8970000  32.4920000  16.7780000  75.2220000  34.7240000
  17.3960000  76.5560000  31.2910000  15.9930000  77.9400000  29.8110000
  13.5730000  75.9610000  36.5150000  15.8020000  75.2270000  35.7270000
  18.4060000  75.4290000  32.6360000  17.5910000  74.7490000  34.8550000
  18.3800000  76.5390000  30.2540000  15.1910000  78.4210000  29.6450000
  16.9510000  77.8970000  28.8520000  13.7690000  75.3020000  37.7150000
  12.7590000  76.4290000  36.3700000  15.9720000  74.5500000  36.9520000
  18.1690000  77.1830000  29.0810000  19.1950000  76.0700000  30.3900000
  16.8130000  78.3420000  28.0240000  12.7850000  75.3190000  38.7520000
  15.0000000  74.5770000  37.9410000  16.7740000  74.0630000  37.1040000
  18.8350000  77.1600000  28.4050000  12.9960000  74.6750000  39.9250000
  11.9700000  75.7870000  38.6160000  15.1720000  73.9170000  39.1950000
  14.2140000  73.9610000  40.1540000  12.3300000  74.6980000  40.6010000
  15.9740000  73.4360000  39.3610000  14.3520000  73.5150000  40.9820000
  16.3660000  83.1850000  61.3920000  16.1950000  83.8610000  60.1680000
  15.3900000  83.1900000  62.3960000  17.6100000  82.4550000  61.6240000
  15.3940000  84.3490000  60.0160000  17.1680000  83.8340000  59.1780000
  14.5760000  83.6620000  62.2650000  15.5600000  82.5100000  63.6090000
  18.5940000  82.4510000  60.6050000  17.7800000  81.7750000  62.8370000
  18.3980000  83.1100000  59.4050000  16.9960000  84.4940000  57.9250000
  14.5760000  82.5150000  64.6280000  16.8040000  81.7810000  63.8410000
  19.4080000  81.9830000  60.7500000  18.5940000  81.3030000  62.9680000
  19.3830000  83.0930000  58.3670000  16.1930000  84.9750000  57.7590000
  17.9540000  84.4510000  56.9660000  14.7720000  81.8550000  65.8290000
  13.7620000  82.9820000  64.4830000  16.9750000  81.1040000  65.0650000
  19.1710000  83.7370000  57.1950000  20.1970000  82.6240000  58.5040000
  17.8150000  84.8960000  56.1380000  13.7870000  81.8720000  66.8660000
  16.0020000  81.1310000  66.0550000  17.7760000  80.6160000  65.2170000
  19.8380000  83.7130000  56.5190000  13.9990000  81.2290000  68.0380000
  12.9730000  82.3410000  66.7300000  16.1740000  80.4710000  67.3090000
  15.2160000  80.5140000  68.2680000  13.3320000  81.2520000  68.7150000
  16.9770000  79.9900000  67.4750000  15.3550000  80.0690000  69.0960000
  15.5980000  81.0330000  19.2220000  15.4270000  81.7090000  17.9980000
  14.6220000  81.0380000  20.2260000  16.8420000  80.3040000  19.4540000
  14.6260000  82.1970000  17.8460000  16.4000000  81.6820000  17.0080000
  13.8080000  81.5100000  20.0950000  14.7930000  80.3580000  21.4390000
  17.8260000  80.2990000  18.4350000  17.0130000  79.6230000  20.6670000
  17.6310000  80.9580000  17.2340000  16.2280000  82.3420000  15.7540000
  13.8080000  80.3630000  22.4580000  16.0370000  79.6290000  21.6710000
  18.6410000  79.8310000  18.5800000  17.8260000  79.1510000  20.7980000
  18.6150000  80.9410000  16.1970000  15.4260000  82.8230000  15.5880000
  17.1860000  82.2990000  14.7950000  14.0040000  79.7030000  23.6580000
  12.9940000  80.8300000  22.3130000  16.2070000  78.9520000  22.8950000
  18.4040000  81.5850000  15.0250000  19.4300000  80.4720000  16.3330000
  17.0470000  82.7440000  13.9670000  13.0200000  79.7200000  24.6960000
  15.2350000  78.9790000  23.8850000  17.0080000  78.4640000  23.0470000
  19.0700000  81.5610000  14.3480000  13.2310000  79.0770000  25.8680000
  12.2050000  80.1890000  24.5590000  15.4060000  78.3190000  25.1380000
  14.4490000  78.3620000  26.0970000  12.5640000  79.1000000  26.5440000
  16.2090000  77.8380000  25.3040000  14.5870000  77.9170000  26.9250000
   9.4740000  15.2020000  33.2790000   9.3040000  15.8790000  32.0540000
   8.4980000  15.2070000  34.2820000  10.7180000  14.4730000  33.5110000
   8.5020000  16.3660000  31.9030000  10.2760000  15.8520000  31.0650000
   7.6850000  15.6800000  34.1520000   8.6690000  14.5270000  35.4960000
  11.7030000  14.4680000  32.4920000  10.8890000  13.7930000  34.7240000
  11.5070000  15.1270000  31.2910000  10.1040000  16.5120000  29.8110000
   7.6850000  14.5320000  36.5150000   9.9130000  13.7980000  35.7270000
  12.5170000  14.0000000  32.6360000  11.7020000  13.3200000  34.8550000
  12.4910000  15.1110000  30.2540000   9.3020000  16.9930000  29.6450000
  11.0620000  16.4690000  28.8520000   7.8800000  13.8730000  37.7150000
   6.8700000  15.0000000  36.3700000  10.0830000  13.1210000  36.9520000
  12.2800000  15.7540000  29.0810000  13.3060000  14.6420000  30.3900000
  10.9240000  16.9140000  28.0240000   6.8960000  13.8900000  38.7520000
   9.1110000  13.1490000  37.9410000  10.8850000  12.6340000  37.1040000
  12.9460000  15.7310000  28.4050000   7.1070000  13.2460000  39.9250000
   6.0810000  14.3590000  38.6160000   9.2830000  12.4890000  39.1950000
   8.3250000  12.5320000  40.1540000   6.4410000  13.2690000  40.6010000
  10.0850000  12.0080000  39.3610000   8.4630000  12.0870000  40.9820000
   9.4120000  10.5210000  21.6710000   9.5820000   9.8450000  22.8950000
  10.3870000  10.5160000  20.6670000   8.1680000  11.2500000  21.4390000
  10.3830000   9.3570000  23.0470000   8.6100000   9.8720000  23.8850000
  11.2010000  10.0440000  20.7980000  10.2170000  11.1960000  19.4540000
   7.1830000  11.2550000  22.4580000   7.9970000  11.9310000  20.2260000
   7.3790000  10.5960000  23.6580000   8.7810000   9.2120000  25.1380000
  11.2010000  11.1910000  18.4350000   8.9730000  11.9250000  19.2220000
   6.3690000  11.7230000  22.3130000   7.1830000  12.4030000  20.0950000
   6.3950000  10.6130000  24.6960000   9.5840000   8.7310000  25.3040000
   7.8240000   9.2550000  26.0970000  11.0060000  11.8510000  17.2340000
  12.0160000  10.7240000  18.5800000   8.8020000  12.6020000  17.9980000
   6.6060000   9.9690000  25.8680000   5.5800000  11.0820000  24.5590000
   7.9620000   8.8100000  26.9250000  11.9900000  11.8340000  16.1970000
   9.7750000  12.5750000  17.0080000   8.0010000  13.0900000  17.8460000
   5.9390000   9.9930000  26.5440000  11.7790000  12.4770000  15.0250000
  12.8050000  11.3650000  16.3330000   9.6030000  13.2350000  15.7540000
  10.5610000  13.1920000  14.7950000  12.4450000  12.4540000  14.3480000
   8.8000000  13.7160000  15.5880000  10.4220000  13.6370000  13.9670000
  10.9780000  25.0330000  75.4490000  10.8070000  25.7090000  74.2250000
  10.0020000  25.0380000  76.4530000  12.2220000  24.3040000  75.6810000
  10.0060000  26.1970000  74.0730000  11.7800000  25.6820000  73.2350000
   9.1880000  25.5100000  76.3220000  10.1730000  24.3580000  77.6660000
  13.2060000  24.2990000  74.6620000  12.3930000  23.6230000  76.8940000
  13.0110000  24.9580000  73.4620000  11.6080000  26.3420000  71.9810000
   9.1880000  24.3630000  78.6850000  11.4170000  23.6290000  77.8980000
  14.0210000  23.8310000  74.8070000  13.2060000  23.1510000  77.0250000
  13.9950000  24.9410000  72.4240000  10.8060000  26.8230000  71.8150000
  12.5660000  26.2990000  71.0230000   9.3840000  23.7030000  79.8860000
   8.3740000  24.8300000  78.5400000  11.5870000  22.9520000  79.1220000
  13.7840000  25.5850000  71.2520000  14.8100000  24.4720000  72.5610000
  12.4270000  26.7440000  70.1950000   8.4000000  23.7200000  80.9230000
  10.6150000  22.9790000  80.1120000  12.3880000  22.4640000  79.2740000
  14.4500000  25.5610000  70.5760000   8.6110000  23.0770000  82.0950000
   7.5850000  24.1890000  80.7870000  10.7860000  22.3190000  81.3660000
   9.8290000  22.3620000  82.3240000   7.9440000  23.1000000  82.7710000
  11.5890000  21.8380000  81.5320000   9.9670000  21.9170000  83.1520000
  11.7140000  32.7110000  75.4490000  11.5440000  33.3880000  74.2250000
  10.7380000  32.7160000  76.4530000  12.9580000  31.9820000  75.6810000
  10.7420000  33.8760000  74.0730000  12.5160000  33.3610000  73.2350000
   9.9250000  33.1890000  76.3220000  10.9090000  32.0360000  77.6660000
  13.9420000  31.9770000  74.6620000  13.1290000  31.3020000  76.8940000
  13.7470000  32.6360000  73.4620000  12.3440000  34.0210000  71.9810000
   9.9240000  32.0410000  78.6850000  12.1530000  31.3070000  77.8980000
  14.7570000  31.5100000  74.8070000  13.9420000  30.8300000  77.0250000
  14.7310000  32.6200000  72.4240000  11.5420000  34.5020000  71.8150000
  13.3020000  33.9780000  71.0230000  10.1200000  31.3820000  79.8860000
   9.1100000  32.5090000  78.5400000  12.3230000  30.6300000  79.1220000
  14.5200000  33.2630000  71.2520000  15.5460000  32.1510000  72.5610000
  13.1640000  34.4230000  70.1950000   9.1360000  31.3990000  80.9230000
  11.3510000  30.6580000  80.1120000  13.1240000  30.1430000  79.2740000
  15.1860000  33.2400000  70.5760000   9.3470000  30.7550000  82.0950000
   8.3210000  31.8680000  80.7870000  11.5230000  29.9980000  81.3660000
  10.5650000  30.0410000  82.3240000   8.6810000  30.7790000  82.7710000
  12.3250000  29.5170000  81.5320000  10.7030000  29.5960000  83.1520000
  10.6490000  21.4770000  35.7270000  10.8200000  20.8000000  36.9520000
  11.6250000  21.4720000  34.7240000   9.4050000  22.2060000  35.4960000
  11.6210000  20.3120000  37.1040000   9.8470000  20.8270000  37.9410000
  12.4380000  20.9990000  34.8550000  11.4540000  22.1520000  33.5110000
   8.4210000  22.2110000  36.5150000   9.2340000  22.8860000  34.2820000
   8.6160000  21.5510000  37.7150000  10.0190000  20.1670000  39.1950000
  12.4390000  22.1470000  32.4920000  10.2100000  22.8810000  33.2790000
   7.6060000  22.6780000  36.3700000   8.4210000  23.3580000  34.1520000
   7.6320000  21.5680000  38.7520000  10.8210000  19.6860000  39.3610000
   9.0610000  20.2100000  40.1540000  12.2430000  22.8060000  31.2910000
  13.2530000  21.6790000  32.6360000  10.0400000  23.5580000  32.0540000
   7.8430000  20.9250000  39.9250000   6.8170000  22.0370000  38.6160000
   9.1990000  19.7650000  40.9820000  13.2270000  22.7890000  30.2540000
  11.0120000  23.5300000  31.0650000   9.2390000  24.0450000  31.9030000
   7.1770000  20.9480000  40.6010000  13.0160000  23.4330000  29.0810000
  14.0420000  22.3200000  30.3900000  10.8400000  24.1900000  29.8110000
  11.7980000  24.1470000  28.8520000  13.6830000  23.4090000  28.4050000
  10.0380000  24.6710000  29.6450000  11.6600000  24.5920000  28.0240000
  12.6540000  34.5840000  91.9550000  12.8250000  33.9070000  93.1790000
  13.6300000  34.5790000  90.9510000  11.4100000  35.3130000  91.7230000
  13.6260000  33.4200000  93.3310000  11.8520000  33.9340000  94.1690000
  14.4440000  34.1060000  91.0820000  13.4590000  35.2590000  89.7380000
  10.4260000  35.3180000  92.7420000  11.2390000  35.9930000  90.5100000
  10.6210000  34.6590000  93.9420000  12.0240000  33.2750000  95.4230000
  14.4440000  35.2540000  88.7190000  12.2150000  35.9880000  89.5060000
   9.6110000  35.7860000  92.5970000  10.4260000  36.4660000  90.3790000
   9.6370000  34.6760000  94.9800000  12.8260000  32.7930000  95.5880000
  11.0660000  33.3180000  96.3810000  14.2480000  35.9130000  87.5180000
  15.2580000  34.7860000  88.8640000  12.0450000  36.6650000  88.2820000
   9.8480000  34.0320000  96.1520000   8.8220000  35.1450000  94.8430000
  11.2050000  32.8730000  97.2090000  15.2320000  35.8960000  86.4810000
  13.0170000  36.6380000  87.2920000  11.2440000  37.1520000  88.1300000
   9.1820000  34.0550000  96.8280000  15.0210000  36.5400000  85.3090000
  16.0470000  35.4280000  86.6170000  12.8460000  37.2970000  86.0380000
  13.8030000  37.2540000  85.0800000  15.6880000  36.5170000  84.6320000
  12.0430000  37.7790000  85.8720000  13.6650000  37.7000000  84.2520000
  11.3850000  29.1550000  35.7270000  11.5560000  28.4790000  36.9520000
  12.3610000  29.1500000  34.7240000  10.1410000  29.8840000  35.4960000
  12.3570000  27.9910000  37.1040000  10.5830000  28.5060000  37.9410000
  13.1750000  28.6780000  34.8550000  12.1900000  29.8300000  33.5110000
   9.1570000  29.8890000  36.5150000   9.9710000  30.5650000  34.2820000
   9.3520000  29.2300000  37.7150000  10.7550000  27.8460000  39.1950000
  13.1750000  29.8250000  32.4920000  10.9460000  30.5590000  33.2790000
   8.3420000  30.3570000  36.3700000   9.1570000  31.0370000  34.1520000
   8.3680000  29.2470000  38.7520000  11.5570000  27.3650000  39.3610000
   9.7970000  27.8890000  40.1540000  12.9790000  30.4850000  31.2910000
  13.9890000  29.3580000  32.6360000  10.7760000  31.2360000  32.0540000
   8.5790000  28.6030000  39.9250000   7.5530000  29.7160000  38.6160000
   9.9360000  27.4440000  40.9820000  13.9630000  30.4680000  30.2540000
  11.7480000  31.2090000  31.0650000   9.9750000  31.7240000  31.9030000
   7.9130000  28.6270000  40.6010000  13.7520000  31.1110000  29.0810000
  14.7780000  29.9990000  30.3900000  11.5770000  31.8690000  29.8110000
  12.5340000  31.8260000  28.8520000  14.4190000  31.0880000  28.4050000
  10.7740000  32.3500000  29.6450000  12.3960000  32.2710000  28.0240000
  11.9490000  37.1130000  61.3920000  11.7780000  37.7900000  60.1680000
  10.9730000  37.1180000  62.3960000  13.1930000  36.3840000  61.6240000
  10.9770000  38.2770000  60.0160000  12.7510000  37.7630000  59.1780000
  10.1590000  37.5910000  62.2650000  11.1440000  36.4380000  63.6090000
  14.1770000  36.3790000  60.6050000  13.3630000  35.7040000  62.8370000
  13.9820000  37.0380000  59.4050000  12.5790000  38.4220000  57.9250000
  10.1590000  36.4430000  64.6280000  12.3880000  35.7090000  63.8410000
  14.9920000  35.9110000  60.7500000  14.1770000  35.2310000  62.9680000
  14.9660000  37.0210000  58.3670000  11.7770000  38.9040000  57.7590000
  13.5370000  38.3790000  56.9660000  10.3550000  35.7840000  65.8290000
   9.3450000  36.9110000  64.4830000  12.5580000  35.0320000  65.0650000
  14.7550000  37.6650000  57.1950000  15.7810000  36.5530000  58.5040000
  13.3980000  38.8240000  56.1380000   9.3710000  35.8010000  66.8660000
  11.5860000  35.0590000  66.0550000  13.3590000  34.5450000  65.2170000
  15.4210000  37.6420000  56.5190000   9.5820000  35.1570000  68.0380000
   8.5560000  36.2690000  66.7300000  11.7570000  34.4000000  67.3090000
  10.8000000  34.4430000  68.2680000   8.9150000  35.1800000  68.7150000
  12.5600000  33.9180000  67.4750000  10.9380000  33.9980000  69.0960000
  13.3900000  42.2630000  91.9550000  13.5610000  41.5860000  93.1790000
  14.3660000  42.2570000  90.9510000  12.1460000  42.9920000  91.7230000
  14.3620000  41.0980000  93.3310000  12.5880000  41.6130000  94.1690000
  15.1800000  41.7850000  91.0820000  14.1950000  42.9380000  89.7380000
  11.1620000  42.9970000  92.7420000  11.9760000  43.6720000  90.5100000
  11.3570000  42.3370000  93.9420000  12.7600000  40.9530000  95.4230000
  15.1800000  42.9330000  88.7190000  12.9510000  43.6670000  89.5060000
  10.3470000  43.4640000  92.5970000  11.1620000  44.1440000  90.3790000
  10.3730000  42.3540000  94.9800000  13.5630000  40.4720000  95.5880000
  11.8020000  40.9960000  96.3810000  14.9840000  43.5920000  87.5180000
  15.9940000  42.4650000  88.8640000  12.7810000  44.3430000  88.2820000
  10.5840000  41.7110000  96.1520000   9.5580000  42.8230000  94.8430000
  11.9410000  40.5510000  97.2090000  15.9680000  43.5750000  86.4810000
  13.7530000  44.3160000  87.2920000  11.9800000  44.8310000  88.1300000
   9.9180000  41.7340000  96.8280000  15.7570000  44.2190000  85.3090000
  16.7830000  43.1060000  86.6170000  13.5820000  44.9760000  86.0380000
  14.5390000  44.9330000  85.0800000  16.4240000  44.1950000  84.6320000
  12.7790000  45.4570000  85.8720000  14.4010000  45.3780000  84.2520000
  11.6200000  33.5570000  21.6710000  11.7900000  32.8800000  22.8950000
  12.5960000  33.5520000  20.6670000  10.3760000  34.2860000  21.4390000
  12.5920000  32.3930000  23.0470000  10.8180000  32.9080000  23.8850000
  13.4090000  33.0790000  20.7980000  12.4250000  34.2320000  19.4540000
   9.3920000  34.2910000  22.4580000  10.2050000  34.9660000  20.2260000
   9.5870000  33.6320000  23.6580000  10.9900000  32.2480000  25.1380000
  13.4100000  34.2270000  18.4350000  11.1810000  34.9610000  19.2220000
   8.5770000  34.7590000  22.3130000   9.3920000  35.4390000  20.0950000
   8.6030000  33.6490000  24.6960000  11.7920000  31.7670000  25.3040000
  10.0320000  32.2910000  26.0970000  13.2140000  34.8860000  17.2340000
  14.2240000  33.7590000  18.5800000  11.0110000  35.6380000  17.9980000
   8.8140000  33.0050000  25.8680000   7.7880000  34.1180000  24.5590000
  10.1700000  31.8460000  26.9250000  14.1980000  34.8690000  16.1970000
  11.9830000  35.6110000  17.0080000  10.2100000  36.1250000  17.8460000
   8.1480000  33.0280000  26.5440000  13.9870000  35.5130000  15.0250000
  15.0130000  34.4010000  16.3330000  11.8110000  36.2710000  15.7540000
  12.7690000  36.2270000  14.7950000  14.6530000  35.4900000  14.3480000
  11.0090000  36.7520000  15.5880000  12.6310000  36.6730000  13.9670000
  14.1260000  49.9410000  91.9550000  14.2970000  49.2640000  93.1790000
  15.1020000  49.9360000  90.9510000  12.8820000  50.6700000  91.7230000
  15.0980000  48.7770000  93.3310000  13.3240000  49.2920000  94.1690000
  15.9160000  49.4640000  91.0820000  14.9320000  50.6160000  89.7380000
  11.8980000  50.6750000  92.7420000  12.7120000  51.3500000  90.5100000
  12.0940000  50.0160000  93.9420000  13.4960000  48.6320000  95.4230000
  15.9160000  50.6110000  88.7190000  13.6870000  51.3450000  89.5060000
  11.0840000  51.1430000  92.5970000  11.8980000  51.8230000  90.3790000
  11.1090000  50.0330000  94.9800000  14.2990000  48.1510000  95.5880000
  12.5380000  48.6750000  96.3810000  15.7200000  51.2710000  87.5180000
  16.7300000  50.1440000  88.8640000  13.5170000  52.0220000  88.2820000
  11.3210000  49.3890000  96.1520000  10.2950000  50.5020000  94.8430000
  12.6770000  48.2300000  97.2090000  16.7040000  51.2540000  86.4810000
  14.4900000  51.9950000  87.2920000  12.7160000  52.5100000  88.1300000
  10.6540000  49.4130000  96.8280000  16.4930000  51.8970000  85.3090000
  17.5190000  50.7850000  86.6170000  14.3180000  52.6550000  86.0380000
  15.2750000  52.6120000  85.0800000  17.1600000  51.8740000  84.6320000
  13.5150000  53.1360000  85.8720000  15.1370000  53.0570000  84.2520000
  12.1520000  47.0420000   5.1650000  11.9820000  47.7180000   3.9410000
  11.1760000  47.0470000   6.1690000  13.3960000  46.3120000   5.3970000
  11.1800000  48.2060000   3.7890000  12.9540000  47.6910000   2.9510000
  10.3630000  47.5190000   6.0380000  11.3470000  46.3670000   7.3820000
  14.3810000  46.3070000   4.3780000  13.5670000  45.6320000   6.6100000
  14.1850000  46.9670000   3.1770000  12.7820000  48.3510000   1.6970000
  10.3630000  46.3710000   8.4010000  12.5910000  45.6370000   7.6140000
  15.1950000  45.8400000   4.5230000  14.3800000  45.1600000   6.7410000
  15.1690000  46.9500000   2.1400000  11.9800000  48.8320000   1.5310000
  13.7400000  48.3080000   0.7390000  10.5580000  45.7120000   9.6010000
   9.5480000  46.8390000   8.2560000  12.7610000  44.9610000   8.8380000
  14.9580000  47.5930000   0.9680000  15.9840000  46.4810000   2.2760000
  13.6020000  48.7530000  -0.0890000   9.5740000  45.7290000  10.6390000
  11.7890000  44.9880000   9.8280000  13.5630000  44.4730000   8.9900000
  15.6240000  47.5700000   0.2920000   9.7850000  45.0860000  11.8110000
   8.7590000  46.1980000  10.5020000  11.9610000  44.3280000  11.0820000
  11.0030000  44.3710000  12.0400000   9.1190000  45.1090000  12.4870000
  12.7630000  43.8470000  11.2470000  11.1410000  43.9260000  12.8680000
  13.3890000  57.9970000  19.2220000  13.2190000  58.6740000  17.9980000
  12.4140000  58.0020000  20.2260000  14.6340000  57.2680000  19.4540000
  12.4180000  59.1610000  17.8460000  14.1920000  58.6460000  17.0080000
  11.6000000  58.4750000  20.0950000  12.5840000  57.3220000  21.4390000
  15.6180000  57.2630000  18.4350000  14.8040000  56.5880000  20.6670000
  15.4220000  57.9220000  17.2340000  14.0200000  59.3060000  15.7540000
  11.6000000  57.3270000  22.4580000  13.8280000  56.5930000  21.6710000
  16.4320000  56.7950000  18.5800000  15.6180000  56.1150000  20.7980000
  16.4070000  57.9050000  16.1970000  13.2170000  59.7870000  15.5880000
  14.9770000  59.2630000  14.7950000  11.7960000  56.6680000  23.6580000
  10.7860000  57.7950000  22.3130000  13.9990000  55.9160000  22.8950000
  16.1950000  58.5490000  15.0250000  17.2210000  57.4360000  16.3330000
  14.8390000  59.7080000  13.9670000  10.8110000  56.6840000  24.6960000
  13.0260000  55.9430000  23.8850000  14.8000000  55.4290000  23.0470000
  16.8620000  58.5260000  14.3480000  11.0230000  56.0410000  25.8680000
   9.9970000  57.1530000  24.5590000  13.1980000  55.2830000  25.1380000
  12.2400000  55.3260000  26.0970000  10.3560000  56.0640000  26.5440000
  14.0010000  54.8020000  25.3040000  12.3790000  54.8810000  26.9250000
  16.3350000  72.9770000  91.9550000  16.5050000  72.3000000  93.1790000
  17.3100000  72.9720000  90.9510000  15.0910000  73.7060000  91.7230000
  17.3060000  71.8130000  93.3310000  15.5330000  72.3270000  94.1690000
  18.1240000  72.4990000  91.0820000  17.1400000  73.6520000  89.7380000
  14.1060000  73.7110000  92.7420000  14.9200000  74.3860000  90.5100000
  14.3020000  73.0520000  93.9420000  15.7040000  71.6680000  95.4230000
  18.1240000  73.6470000  88.7190000  15.8960000  74.3810000  89.5060000
  13.2920000  74.1790000  92.5970000  14.1060000  74.8590000  90.3790000
  13.3180000  73.0690000  94.9800000  16.5070000  71.1860000  95.5880000
  14.7470000  71.7110000  96.3810000  17.9290000  74.3060000  87.5180000
  18.9390000  73.1790000  88.8640000  15.7250000  75.0580000  88.2820000
  13.5290000  72.4250000  96.1520000  12.5030000  73.5380000  94.8430000
  14.8850000  71.2660000  97.2090000  18.9130000  74.2890000  86.4810000
  16.6980000  75.0310000  87.2920000  14.9240000  75.5450000  88.1300000
  12.8620000  72.4480000  96.8280000  18.7020000  74.9330000  85.3090000
  19.7280000  73.8210000  86.6170000  16.5260000  75.6900000  86.0380000
  17.4840000  75.6470000  85.0800000  19.3680000  74.9100000  84.6320000
  15.7240000  76.1720000  85.8720000  17.3450000  76.0930000  84.2520000
  13.6240000  62.3990000   5.1650000  13.4540000  63.0750000   3.9410000
  12.6490000  62.4040000   6.1690000  14.8680000  61.6700000   5.3970000
  12.6530000  63.5630000   3.7890000  14.4260000  63.0480000   2.9510000
  11.8350000  62.8760000   6.0380000  12.8190000  61.7240000   7.3820000
  15.8530000  61.6650000   4.3780000  15.0390000  60.9890000   6.6100000
  15.6570000  62.3240000   3.1770000  14.2550000  63.7080000   1.6970000
  11.8350000  61.7290000   8.4010000  14.0630000  60.9950000   7.6140000
  16.6670000  61.1970000   4.5230000  15.8530000  60.5170000   6.7410000
  16.6410000  62.3070000   2.1400000  13.4520000  64.1890000   1.5310000
  15.2120000  63.6650000   0.7390000  12.0300000  61.0690000   9.6010000
  11.0210000  62.1960000   8.2560000  14.2340000  60.3180000   8.8380000
  16.4300000  62.9510000   0.9680000  17.4560000  61.8380000   2.2760000
  15.0740000  64.1100000  -0.0890000  11.0460000  61.0860000  10.6390000
  13.2610000  60.3450000   9.8280000  15.0350000  59.8300000   8.9900000
  17.0970000  62.9270000   0.2920000  11.2570000  60.4430000  11.8110000
  10.2320000  61.5550000  10.5020000  13.4330000  59.6850000  11.0820000
  12.4750000  59.7280000  12.0400000  10.5910000  60.4660000  12.4870000
  14.2360000  59.2040000  11.2470000  12.6140000  59.2830000  12.8680000
  14.1260000  65.6760000  19.2220000  13.9550000  66.3520000  17.9980000
  13.1500000  65.6810000  20.2260000  15.3700000  64.9460000  19.4540000
  13.1540000  66.8400000  17.8460000  14.9280000  66.3250000  17.0080000
  12.3360000  66.1530000  20.0950000  13.3200000  65.0010000  21.4390000
  16.3540000  64.9410000  18.4350000  15.5400000  64.2660000  20.6670000
  16.1580000  65.6010000  17.2340000  14.7560000  66.9850000  15.7540000
  12.3360000  65.0050000  22.4580000  14.5650000  64.2710000  21.6710000
  17.1680000  64.4740000  18.5800000  16.3540000  63.7940000  20.7980000
  17.1430000  65.5840000  16.1970000  13.9530000  67.4660000  15.5880000
  15.7140000  66.9420000  14.7950000  12.5320000  64.3460000  23.6580000
  11.5220000  65.4730000  22.3130000  14.7350000  63.5950000  22.8950000
  16.9310000  66.2270000  15.0250000  17.9570000  65.1150000  16.3330000
  15.5750000  67.3870000  13.9670000  11.5470000  64.3630000  24.6960000
  13.7620000  63.6220000  23.8850000  15.5360000  63.1070000  23.0470000
  17.5980000  66.2040000  14.3480000  11.7590000  63.7200000  25.8680000
  10.7330000  64.8320000  24.5590000  13.9340000  62.9620000  25.1380000
  12.9770000  63.0050000  26.0970000  11.0920000  63.7430000  26.5440000
  14.7370000  62.4810000  25.3040000  13.1150000  62.5600000  26.9250000
  17.3680000  89.7380000  89.5060000  17.1980000  90.4150000  88.2820000
  16.3920000  89.7430000  90.5100000  18.6120000  89.0090000  89.7380000
  16.3960000  90.9030000  88.1300000  18.1700000  90.3880000  87.2920000
  15.5790000  90.2160000  90.3790000  16.5630000  89.0630000  91.7230000
  19.5960000  89.0040000  88.7190000  18.7830000  88.3290000  90.9510000
  19.4010000  89.6630000  87.5180000  17.9980000  91.0480000  86.0380000
  15.5780000  89.0680000  92.7420000  17.8070000  88.3340000  91.9550000
  20.4110000  88.5370000  88.8640000  19.5960000  87.8570000  91.0820000
  20.3850000  89.6470000  86.4810000  17.1960000  91.5290000  85.8720000
  18.9560000  91.0050000  85.0800000  15.7740000  88.4090000  93.9420000
  14.7640000  89.5360000  92.5970000  17.9770000  87.6570000  93.1790000
  20.1740000  90.2900000  85.3090000  21.2000000  89.1780000  86.6170000
  18.8180000  91.4500000  84.2520000  14.7900000  88.4260000  94.9800000
  17.0050000  87.6850000  94.1690000  18.7790000  87.1700000  93.3310000
  20.8400000  90.2670000  84.6320000  15.0010000  87.7820000  96.1520000
  13.9750000  88.8950000  94.8430000  17.1770000  87.0250000  95.4230000
  16.2190000  87.0680000  96.3810000  14.3350000  87.8060000  96.8280000
  17.9790000  86.5440000  95.5880000  16.3570000  86.6230000  97.2090000
  15.1600000  66.7030000  89.5060000  14.9890000  67.3790000  88.2820000
  14.1840000  66.7080000  90.5100000  16.4040000  65.9730000  89.7380000
  14.1880000  67.8670000  88.1300000  15.9620000  67.3520000  87.2920000
  13.3700000  67.1800000  90.3790000  14.3550000  66.0280000  91.7230000
  17.3880000  65.9680000  88.7190000  16.5740000  65.2930000  90.9510000
  17.1930000  66.6280000  87.5180000  15.7900000  68.0120000  86.0380000
  13.3700000  66.0320000  92.7420000  15.5990000  65.2980000  91.9550000
  18.2020000  65.5010000  88.8640000  17.3880000  64.8210000  91.0820000
  18.1770000  66.6110000  86.4810000  14.9870000  68.4930000  85.8720000
  16.7480000  67.9690000  85.0800000  13.5660000  65.3730000  93.9420000
  12.5560000  66.5000000  92.5970000  15.7690000  64.6220000  93.1790000
  17.9660000  67.2540000  85.3090000  18.9910000  66.1420000  86.6170000
  16.6090000  68.4140000  84.2520000  12.5820000  65.3900000  94.9800000
  14.7960000  64.6490000  94.1690000  16.5700000  64.1340000  93.3310000
  18.6320000  67.2310000  84.6320000  12.7930000  64.7470000  96.1520000
  11.7670000  65.8590000  94.8430000  14.9680000  63.9890000  95.4230000
  14.0110000  64.0320000  96.3810000  12.1260000  64.7700000  96.8280000
  15.7710000  63.5080000  95.5880000  14.1490000  63.5870000  97.2090000
  17.0710000  80.6560000  91.9550000  17.2410000  79.9790000  93.1790000
  18.0470000  80.6500000  90.9510000  15.8270000  81.3850000  91.7230000
  18.0420000  79.4910000  93.3310000  16.2690000  80.0060000  94.1690000
  18.8600000  80.1780000  91.0820000  17.8760000  81.3310000  89.7380000
  14.8420000  81.3900000  92.7420000  15.6560000  82.0650000  90.5100000
  15.0380000  80.7300000  93.9420000  16.4410000  79.3460000  95.4230000
  18.8600000  81.3260000  88.7190000  16.6320000  82.0600000  89.5060000
  14.0280000  81.8570000  92.5970000  14.8430000  82.5370000  90.3790000
  14.0540000  80.7470000  94.9800000  17.2430000  78.8650000  95.5880000
  15.4830000  79.3890000  96.3810000  18.6650000  81.9850000  87.5180000
  19.6750000  80.8580000  88.8640000  16.4610000  82.7360000  88.2820000
  14.2650000  80.1040000  96.1520000  13.2390000  81.2160000  94.8430000
  15.6210000  78.9440000  97.2090000  19.6490000  81.9680000  86.4810000
  17.4340000  82.7090000  87.2920000  15.6600000  83.2240000  88.1300000
  13.5980000  80.1270000  96.8280000  19.4380000  82.6120000  85.3090000
  20.4640000  81.4990000  86.6170000  17.2620000  83.3690000  86.0380000
  18.2200000  83.3260000  85.0800000  20.1040000  82.5880000  84.6320000
  16.4600000  83.8500000  85.8720000  18.0820000  83.7710000  84.2520000
  18.5430000  96.0130000  91.9550000  18.7140000  95.3360000  93.1790000
  19.5190000  96.0080000  90.9510000  17.2990000  96.7420000  91.7230000
  19.5150000  94.8490000  93.3310000  17.7410000  95.3630000  94.1690000
  20.3320000  95.5350000  91.0820000  19.3480000  96.6880000  89.7380000
  16.3150000  96.7470000  92.7420000  17.1280000  97.4220000  90.5100000
  16.5100000  96.0880000  93.9420000  17.9130000  94.7030000  95.4230000
  20.3330000  96.6830000  88.7190000  18.1040000  97.4170000  89.5060000
  15.5000000  97.2140000  92.5970000  16.3150000  97.8950000  90.3790000
  15.5260000  96.1040000  94.9800000  18.7150000  94.2220000  95.5880000
  16.9550000  94.7460000  96.3810000  20.1370000  97.3420000  87.5180000
  21.1470000  96.2150000  88.8640000  17.9340000  98.0940000  88.2820000
  15.7370000  95.4610000  96.1520000  14.7110000  96.5730000  94.8430000
  17.0930000  94.3010000  97.2090000  21.1210000  97.3250000  86.4810000
  18.9060000  98.0660000  87.2920000  17.1330000  98.5810000  88.1300000
  15.0710000  95.4840000  96.8280000  20.9100000  97.9690000  85.3090000
  21.9360000  96.8560000  86.6170000  18.7340000  98.7260000  86.0380000
  19.6920000  98.6830000  85.0800000  21.5770000  97.9460000  84.6320000
  17.9320000  99.2070000  85.8720000  19.5540000  99.1280000  84.2520000
  17.1910000  20.3520000  63.8410000  17.3610000  19.6750000  65.0650000
  18.1670000  20.3470000  62.8370000  15.9470000  21.0810000  63.6090000
  18.1620000  19.1880000  65.2170000  16.3890000  19.7020000  66.0550000
  18.9800000  19.8740000  62.9680000  17.9960000  21.0270000  61.6240000
  14.9620000  21.0860000  64.6280000  15.7760000  21.7610000  62.3960000
  15.1580000  20.4270000  65.8290000  16.5600000  19.0420000  67.3090000
  18.9800000  21.0220000  60.6050000  16.7520000  21.7560000  61.3920000
  14.1480000  21.5530000  64.4830000  14.9620000  22.2330000  62.2650000
  14.1740000  20.4430000  66.8660000  17.3630000  18.5610000  67.4750000
  15.6030000  19.0850000  68.2680000  18.7850000  21.6810000  59.4050000
  19.7950000  20.5540000  60.7500000  16.5810000  22.4330000  60.1680000
  14.3850000  19.8000000  68.0380000  13.3590000  20.9120000  66.7300000
  15.7410000  18.6400000  69.0960000  19.7690000  21.6640000  58.3670000
  17.5540000  22.4050000  59.1780000  15.7800000  22.9200000  60.0160000
  13.7180000  19.8230000  68.7150000  19.5580000  22.3080000  57.1950000
  20.5840000  21.1950000  58.5040000  17.3820000  23.0650000  57.9250000
  18.3400000  23.0220000  56.9660000  20.2240000  22.2840000  56.5190000
  16.5800000  23.5460000  57.7590000  18.2010000  23.4670000  56.1380000
  16.9870000  26.1580000  47.3360000  16.8160000  26.8340000  46.1110000
  16.0110000  26.1630000  48.3390000  18.2310000  25.4280000  47.5670000
  16.0150000  27.3220000  45.9590000  17.7890000  26.8070000  45.1220000
  15.1970000  26.6350000  48.2080000  16.1820000  25.4830000  49.5520000
  19.2150000  25.4240000  46.5480000  18.4010000  24.7480000  48.7810000
  19.0200000  26.0830000  45.3480000  17.6170000  27.4670000  43.8680000
  15.1970000  25.4880000  50.5710000  17.4260000  24.7540000  49.7840000
  20.0290000  24.9560000  46.6930000  19.2150000  24.2760000  48.9110000
  20.0040000  26.0660000  44.3110000  16.8140000  27.9480000  43.7020000
  18.5750000  27.4240000  42.9090000  15.3930000  24.8280000  51.7720000
  14.3830000  25.9550000  50.4270000  17.5960000  24.0770000  51.0090000
  19.7930000  26.7100000  43.1380000  20.8180000  25.5970000  44.4470000
  18.4360000  27.8690000  42.0810000  14.4090000  24.8450000  52.8090000
  16.6230000  24.1040000  51.9980000  18.3970000  23.5890000  51.1600000
  20.4590000  26.6860000  42.4620000  14.6200000  24.2020000  53.9820000
  13.5940000  25.3140000  52.6730000  16.7950000  23.4440000  53.2520000
  15.8380000  23.4870000  54.2110000  13.9530000  24.2250000  54.6580000
  17.5980000  22.9630000  53.4180000  15.9760000  23.0420000  55.0390000
  17.6610000  29.1550000  35.7270000  17.8310000  28.4790000  36.9520000
  18.6360000  29.1500000  34.7240000  16.4160000  29.8840000  35.4960000
  18.6320000  27.9910000  37.1040000  16.8580000  28.5060000  37.9410000
  19.4500000  28.6780000  34.8550000  18.4660000  29.8300000  33.5110000
  15.4320000  29.8890000  36.5150000  16.2460000  30.5650000  34.2820000
  15.6280000  29.2300000  37.7150000  17.0300000  27.8460000  39.1950000
  19.4500000  29.8250000  32.4920000  17.2220000  30.5590000  33.2790000
  14.6180000  30.3570000  36.3700000  15.4320000  31.0370000  34.1520000
  14.6430000  29.2470000  38.7520000  17.8330000  27.3650000  39.3610000
  16.0730000  27.8890000  40.1540000  19.2540000  30.4850000  31.2910000
  20.2640000  29.3580000  32.6360000  17.0510000  31.2360000  32.0540000
  14.8550000  28.6030000  39.9250000  13.8290000  29.7160000  38.6160000
  16.2110000  27.4440000  40.9820000  20.2390000  30.4680000  30.2540000
  18.0240000  31.2090000  31.0650000  16.2500000  31.7240000  31.9030000
  14.1880000  28.6270000  40.6010000  20.0270000  31.1110000  29.0810000
  21.0530000  29.9990000  30.3900000  17.8520000  31.8690000  29.8110000
  18.8100000  31.8260000  28.8520000  20.6940000  31.0880000  28.4050000
  17.0490000  32.3500000  29.6450000  18.6710000  32.2710000  28.0240000
  16.7200000  27.2830000  19.2220000  16.5500000  27.9590000  17.9980000
  15.7450000  27.2880000  20.2260000  17.9640000  26.5530000  19.4540000
  15.7490000  28.4470000  17.8460000  17.5220000  27.9320000  17.0080000
  14.9310000  27.7600000  20.0950000  15.9150000  26.6080000  21.4390000
  18.9490000  26.5480000  18.4350000  18.1350000  25.8730000  20.6670000
  18.7530000  27.2080000  17.2340000  17.3510000  28.5920000  15.7540000
  14.9310000  26.6120000  22.4580000  17.1590000  25.8780000  21.6710000
  19.7630000  26.0810000  18.5800000  18.9490000  25.4010000  20.7980000
  19.7370000  27.1910000  16.1970000  16.5480000  29.0730000  15.5880000
  18.3080000  28.5490000  14.7950000  15.1260000  25.9530000  23.6580000
  14.1160000  27.0800000  22.3130000  17.3300000  25.2020000  22.8950000
  19.5260000  27.8340000  15.0250000  20.5520000  26.7220000  16.3330000
  18.1700000  28.9940000  13.9670000  14.1420000  25.9700000  24.6960000
  16.3570000  25.2290000  23.8850000  18.1310000  24.7140000  23.0470000
  20.1930000  27.8110000  14.3480000  14.3530000  25.3270000  25.8680000
  13.3270000  26.4390000  24.5590000  16.5290000  24.5690000  25.1380000
  15.5710000  24.6120000  26.0970000  13.6870000  25.3500000  26.5440000
  17.3320000  24.0880000  25.3040000  15.7100000  24.1670000  26.9250000
  18.6630000  35.7090000  63.8410000  18.8330000  35.0320000  65.0650000
  19.6390000  35.7040000  62.8370000  17.4190000  36.4380000  63.6090000
  19.6350000  34.5450000  65.2170000  17.8610000  35.0590000  66.0550000
  20.4520000  35.2310000  62.9680000  19.4680000  36.3840000  61.6240000
  16.4350000  36.4430000  64.6280000  17.2480000  37.1180000  62.3960000
  16.6300000  35.7840000  65.8290000  18.0330000  34.4000000  67.3090000
  20.4530000  36.3790000  60.6050000  18.2240000  37.1130000  61.3920000
  15.6200000  36.9110000  64.4830000  16.4350000  37.5910000  62.2650000
  15.6460000  35.8010000  66.8660000  18.8350000  33.9180000  67.4750000
  17.0750000  34.4430000  68.2680000  20.2570000  37.0380000  59.4050000
  21.2670000  35.9110000  60.7500000  18.0540000  37.7900000  60.1680000
  15.8570000  35.1570000  68.0380000  14.8310000  36.2690000  66.7300000
  17.2130000  33.9980000  69.0960000  21.2410000  37.0210000  58.3670000
  19.0260000  37.7630000  59.1780000  17.2520000  38.2770000  60.0160000
  15.1910000  35.1800000  68.7150000  21.0300000  37.6650000  57.1950000
  22.0560000  36.5530000  58.5040000  18.8540000  38.4220000  57.9250000
  19.8120000  38.3790000  56.9660000  21.6960000  37.6420000  56.5190000
  18.0520000  38.9040000  57.7590000  19.6740000  38.8240000  56.1380000
  19.2270000  43.6670000  89.5060000  19.0560000  44.3430000  88.2820000
  18.2510000  43.6720000  90.5100000  20.4710000  42.9380000  89.7380000
  18.2550000  44.8310000  88.1300000  20.0290000  44.3160000  87.2920000
  17.4370000  44.1440000  90.3790000  18.4210000  42.9920000  91.7230000
  21.4550000  42.9330000  88.7190000  20.6410000  42.2570000  90.9510000
  21.2590000  43.5920000  87.5180000  19.8570000  44.9760000  86.0380000
  17.4370000  42.9970000  92.7420000  19.6660000  42.2630000  91.9550000
  22.2690000  42.4650000  88.8640000  21.4550000  41.7850000  91.0820000
  22.2440000  43.5750000  86.4810000  19.0540000  45.4570000  85.8720000
  20.8150000  44.9330000  85.0800000  17.6330000  42.3370000  93.9420000
  16.6230000  43.4640000  92.5970000  19.8360000  41.5860000  93.1790000
  22.0320000  44.2190000  85.3090000  23.0580000  43.1060000  86.6170000
  20.6760000  45.3780000  84.2520000  16.6480000  42.3540000  94.9800000
  18.8630000  41.6130000  94.1690000  20.6370000  41.0980000  93.3310000
  22.6990000  44.1950000  84.6320000  16.8600000  41.7110000  96.1520000
  15.8340000  42.8230000  94.8430000  19.0350000  40.9530000  95.4230000
  18.0780000  40.9960000  96.3810000  16.1930000  41.7340000  96.8280000
  19.8380000  40.4720000  95.5880000  18.2160000  40.5510000  97.2090000
  19.6340000  47.7890000  49.7840000  19.8040000  47.1130000  51.0090000
  20.6100000  47.7840000  48.7810000  18.3900000  48.5180000  49.5520000
  20.6060000  46.6250000  51.1600000  18.8320000  47.1400000  51.9980000
  21.4230000  47.3120000  48.9110000  20.4390000  48.4640000  47.5670000
  17.4060000  48.5230000  50.5710000  18.2190000  49.1990000  48.3390000
  17.6010000  47.8640000  51.7720000  19.0040000  46.4800000  53.2520000
  21.4240000  48.4590000  46.5480000  19.1950000  49.1930000  47.3360000
  16.5910000  48.9910000  50.4270000  17.4060000  49.6710000  48.2080000
  16.6170000  47.8810000  52.8090000  19.8060000  45.9990000  53.4180000
  18.0460000  46.5230000  54.2110000  21.2280000  49.1190000  45.3480000
  22.2380000  47.9920000  46.6930000  19.0250000  49.8700000  46.1110000
  16.8280000  47.2370000  53.9820000  15.8020000  48.3500000  52.6730000
  18.1840000  46.0780000  55.0390000  22.2120000  49.1020000  44.3110000
  19.9970000  49.8430000  45.1220000  18.2230000  50.3580000  45.9590000
  16.1620000  47.2610000  54.6580000  22.0010000  49.7450000  43.1380000
  23.0270000  48.6330000  44.4470000  19.8250000  50.5030000  43.8680000
  20.7830000  50.4600000  42.9090000  22.6670000  49.7220000  42.4620000
  19.0230000  50.9840000  43.7020000  20.6450000  50.9050000  42.0810000
  23.1110000  91.9880000  33.2790000  22.9400000  92.6650000  32.0540000
  22.1350000  91.9930000  34.2820000  24.3550000  91.2590000  33.5110000
  22.1390000  93.1520000  31.9030000  23.9130000  92.6380000  31.0650000
  21.3210000  92.4660000  34.1520000  22.3050000  91.3130000  35.4960000
  25.3390000  91.2540000  32.4920000  24.5250000  90.5790000  34.7240000
  25.1430000  91.9130000  31.2910000  23.7410000  93.2980000  29.8110000
  21.3210000  91.3180000  36.5150000  23.5490000  90.5840000  35.7270000
  26.1530000  90.7860000  32.6360000  25.3390000  90.1060000  34.8550000
  26.1280000  91.8960000  30.2540000  22.9380000  93.7790000  29.6450000
  24.6990000  93.2540000  28.8520000  21.5170000  90.6590000  37.7150000
  20.5070000  91.7860000  36.3700000  23.7200000  89.9070000  36.9520000
  25.9160000  92.5400000  29.0810000  26.9420000  91.4280000  30.3900000
  24.5600000  93.7000000  28.0240000  20.5320000  90.6760000  38.7520000
  22.7470000  89.9350000  37.9410000  24.5210000  89.4200000  37.1040000
  26.5830000  92.5170000  28.4050000  20.7440000  90.0320000  39.9250000
  19.7180000  91.1450000  38.6160000  22.9190000  89.2750000  39.1950000
  21.9610000  89.3180000  40.1540000  20.0770000  90.0550000  40.6010000
  23.7220000  88.7940000  39.3610000  22.1000000  88.8730000  40.9820000
  19.4300000  53.5950000  33.2790000  19.2600000  54.2720000  32.0540000
  18.4540000  53.6000000  34.2820000  20.6740000  52.8660000  33.5110000
  18.4580000  54.7590000  31.9030000  20.2320000  54.2450000  31.0650000
  17.6410000  54.0730000  34.1520000  18.6250000  52.9200000  35.4960000
  21.6580000  52.8610000  32.4920000  20.8450000  52.1860000  34.7240000
  21.4630000  53.5200000  31.2910000  20.0600000  54.9050000  29.8110000
  17.6400000  52.9250000  36.5150000  19.8690000  52.1910000  35.7270000
  22.4730000  52.3930000  32.6360000  21.6580000  51.7130000  34.8550000
  22.4470000  53.5040000  30.2540000  19.2580000  55.3860000  29.6450000
  21.0180000  54.8620000  28.8520000  17.8360000  52.2660000  37.7150000
  16.8260000  53.3930000  36.3700000  20.0390000  51.5140000  36.9520000
  22.2360000  54.1470000  29.0810000  23.2620000  53.0350000  30.3900000
  20.8800000  55.3070000  28.0240000  16.8520000  52.2830000  38.7520000
  19.0670000  51.5420000  37.9410000  20.8400000  51.0270000  37.1040000
  22.9020000  54.1240000  28.4050000  17.0630000  51.6390000  39.9250000
  16.0370000  52.7520000  38.6160000  19.2390000  50.8820000  39.1950000
  18.2810000  50.9250000  40.1540000  16.3960000  51.6620000  40.6010000
  20.0410000  50.4010000  39.3610000  18.4190000  50.4800000  40.9820000
  21.4030000  72.2290000  47.3360000  21.2330000  72.9060000  46.1110000
  20.4280000  72.2340000  48.3390000  22.6480000  71.5000000  47.5670000
  20.4320000  73.3930000  45.9590000  22.2060000  72.8790000  45.1220000
  19.6140000  72.7070000  48.2080000  20.5980000  71.5540000  49.5520000
  23.6320000  71.4950000  46.5480000  22.8180000  70.8200000  48.7810000
  23.4360000  72.1540000  45.3480000  22.0340000  73.5390000  43.8680000
  19.6140000  71.5590000  50.5710000  21.8420000  70.8250000  49.7840000
  24.4460000  71.0270000  46.6930000  23.6320000  70.3470000  48.9110000
  24.4200000  72.1380000  44.3110000  21.2310000  74.0200000  43.7020000
  22.9910000  73.4960000  42.9090000  19.8100000  70.9000000  51.7720000
  18.8000000  72.0270000  50.4270000  22.0130000  70.1480000  51.0090000
  24.2090000  72.7810000  43.1380000  25.2350000  71.6690000  44.4470000
  22.8530000  73.9410000  42.0810000  18.8250000  70.9170000  52.8090000
  21.0400000  70.1760000  51.9980000  22.8140000  69.6610000  51.1600000
  24.8760000  72.7580000  42.4620000  19.0360000  70.2730000  53.9820000
  18.0110000  71.3860000  52.6730000  21.2120000  69.5160000  53.2520000
  20.2540000  69.5590000  54.2110000  18.3700000  70.2960000  54.6580000
  22.0150000  69.0350000  53.4180000  20.3930000  69.1140000  55.0390000
  22.6410000  83.1850000  61.3920000  22.4700000  83.8610000  60.1680000
  21.6650000  83.1900000  62.3960000  23.8850000  82.4550000  61.6240000
  21.6690000  84.3490000  60.0160000  23.4430000  83.8340000  59.1780000
  20.8510000  83.6620000  62.2650000  21.8360000  82.5100000  63.6090000
  24.8690000  82.4510000  60.6050000  24.0550000  81.7750000  62.8370000
  24.6740000  83.1100000  59.4050000  23.2710000  84.4940000  57.9250000
  20.8510000  82.5150000  64.6280000  23.0800000  81.7810000  63.8410000
  25.6840000  81.9830000  60.7500000  24.8690000  81.3030000  62.9680000
  25.6580000  83.0930000  58.3670000  22.4690000  84.9750000  57.7590000
  24.2290000  84.4510000  56.9660000  21.0470000  81.8550000  65.8290000
  20.0370000  82.9820000  64.4830000  23.2500000  81.1040000  65.0650000
  25.4470000  83.7370000  57.1950000  26.4730000  82.6240000  58.5040000
  24.0900000  84.8960000  56.1380000  20.0630000  81.8720000  66.8660000
  22.2780000  81.1310000  66.0550000  24.0510000  80.6160000  65.2170000
  26.1130000  83.7130000  56.5190000  20.2740000  81.2290000  68.0380000
  19.2480000  82.3410000  66.7300000  22.4490000  80.4710000  67.3090000
  21.4920000  80.5140000  68.2680000  19.6070000  81.2520000  68.7150000
  23.2520000  79.9900000  67.4750000  21.6300000  80.0690000  69.0960000
  23.3150000  86.1820000  49.7840000  23.4850000  85.5060000  51.0090000
  24.2900000  86.1770000  48.7810000  22.0700000  86.9110000  49.5520000
  24.2860000  85.0180000  51.1600000  22.5120000  85.5330000  51.9980000
  25.1040000  85.7050000  48.9110000  24.1200000  86.8570000  47.5670000
  21.0860000  86.9160000  50.5710000  21.9000000  87.5920000  48.3390000
  21.2820000  86.2570000  51.7720000  22.6840000  84.8730000  53.2520000
  25.1040000  86.8520000  46.5480000  22.8760000  87.5860000  47.3360000
  20.2720000  87.3840000  50.4270000  21.0860000  88.0640000  48.2080000
  20.2980000  86.2740000  52.8090000  23.4870000  84.3920000  53.4180000
  21.7270000  84.9160000  54.2110000  24.9080000  87.5120000  45.3480000
  25.9180000  86.3850000  46.6930000  22.7050000  88.2630000  46.1110000
  20.5090000  85.6300000  53.9820000  19.4830000  86.7430000  52.6730000
  21.8650000  84.4710000  55.0390000  25.8930000  87.4950000  44.3110000
  23.6780000  88.2360000  45.1220000  21.9040000  88.7510000  45.9590000
  19.8420000  85.6540000  54.6580000  25.6820000  88.1380000  43.1380000
  26.7070000  87.0260000  44.4470000  23.5060000  88.8960000  43.8680000
  24.4640000  88.8530000  42.9090000  26.3480000  88.1150000  42.4620000
  22.7030000  89.3770000  43.7020000  24.3250000  89.2980000  42.0810000
  24.3790000  97.4170000  89.5060000  24.2090000  98.0940000  88.2820000
  23.4040000  97.4220000  90.5100000  25.6240000  96.6880000  89.7380000
  23.4080000  98.5810000  88.1300000  25.1820000  98.0660000  87.2920000
  22.5900000  97.8950000  90.3790000  23.5740000  96.7420000  91.7230000
  26.6080000  96.6830000  88.7190000  25.7940000  96.0080000  90.9510000
  26.4120000  97.3420000  87.5180000  25.0100000  98.7260000  86.0380000
  22.5900000  96.7470000  92.7420000  24.8180000  96.0130000  91.9550000
  27.4220000  96.2150000  88.8640000  26.6080000  95.5350000  91.0820000
  27.3970000  97.3250000  86.4810000  24.2070000  99.2070000  85.8720000
  25.9670000  98.6830000  85.0800000  22.7860000  96.0880000  93.9420000
  21.7760000  97.2140000  92.5970000  24.9890000  95.3360000  93.1790000
  27.1850000  97.9690000  85.3090000  28.2110000  96.8560000  86.6170000
  25.8290000  99.1280000  84.2520000  21.8010000  96.1040000  94.9800000
  24.0160000  95.3630000  94.1690000  25.7900000  94.8490000  93.3310000
  27.8520000  97.9460000  84.6320000  22.0130000  95.4610000  96.1520000
  20.9870000  96.5730000  94.8430000  24.1880000  94.7030000  95.4230000
  23.2300000  94.7460000  96.3810000  21.3460000  95.4840000  96.8280000
  24.9910000  94.2220000  95.5880000  23.3690000  94.3010000  97.2090000
  15.2480000  11.9250000  19.2220000  15.0780000  12.6020000  17.9980000
  14.2720000  11.9310000  20.2260000  16.4920000  11.1960000  19.4540000
  14.2760000  13.0900000  17.8460000  16.0500000  12.5750000  17.0080000
  13.4590000  12.4030000  20.0950000  14.4430000  11.2500000  21.4390000
  17.4770000  11.1910000  18.4350000  16.6630000  10.5160000  20.6670000
  17.2810000  11.8510000  17.2340000  15.8780000  13.2350000  15.7540000
  13.4590000  11.2550000  22.4580000  15.6870000  10.5210000  21.6710000
  18.2910000  10.7240000  18.5800000  17.4760000  10.0440000  20.7980000
  18.2650000  11.8340000  16.1970000  15.0760000  13.7160000  15.5880000
  16.8360000  13.1920000  14.7950000  13.6540000  10.5960000  23.6580000
  12.6440000  11.7230000  22.3130000  15.8570000   9.8450000  22.8950000
  18.0540000  12.4770000  15.0250000  19.0800000  11.3650000  16.3330000
  16.6980000  13.6370000  13.9670000  12.6700000  10.6130000  24.6960000
  14.8850000   9.8720000  23.8850000  16.6590000   9.3570000  23.0470000
  18.7200000  12.4540000  14.3480000  12.8810000   9.9690000  25.8680000
  11.8550000  11.0820000  24.5590000  15.0570000   9.2120000  25.1380000
  14.0990000   9.2550000  26.0970000  12.2150000   9.9930000  26.5440000
  15.8590000   8.7310000  25.3040000  14.2370000   8.8100000  26.9250000
  15.7490000  15.2020000  33.2790000  15.5790000  15.8790000  32.0540000
  14.7740000  15.2070000  34.2820000  16.9930000  14.4730000  33.5110000
  14.7780000  16.3660000  31.9030000  16.5510000  15.8520000  31.0650000
  13.9600000  15.6800000  34.1520000  14.9440000  14.5270000  35.4960000
  17.9780000  14.4680000  32.4920000  17.1640000  13.7930000  34.7240000
  17.7820000  15.1270000  31.2910000  16.3800000  16.5120000  29.8110000
  13.9600000  14.5320000  36.5150000  16.1880000  13.7980000  35.7270000
  18.7920000  14.0000000  32.6360000  17.9780000  13.3200000  34.8550000
  18.7660000  15.1110000  30.2540000  15.5770000  16.9930000  29.6450000
  17.3370000  16.4690000  28.8520000  14.1550000  13.8730000  37.7150000
  13.1460000  15.0000000  36.3700000  16.3590000  13.1210000  36.9520000
  18.5550000  15.7540000  29.0810000  19.5810000  14.6420000  30.3900000
  17.1990000  16.9140000  28.0240000  13.1710000  13.8900000  38.7520000
  15.3860000  13.1490000  37.9410000  17.1600000  12.6340000  37.1040000
  19.2220000  15.7310000  28.4050000  13.3820000  13.2460000  39.9250000
  12.3570000  14.3590000  38.6160000  15.5580000  12.4890000  39.1950000
  14.6000000  12.5320000  40.1540000  12.7160000  13.2690000  40.6010000
  16.3610000  12.0080000  39.3610000  14.7390000  12.0870000  40.9820000
  15.1860000   7.2440000   7.6140000  15.3560000   6.5680000   8.8380000
  16.1620000   7.2390000   6.6100000  13.9420000   7.9740000   7.3820000
  16.1570000   6.0800000   8.9900000  14.3840000   6.5950000   9.8280000
  16.9750000   6.7670000   6.7410000  15.9910000   7.9190000   5.3970000
  12.9570000   7.9780000   8.4010000  13.7710000   8.6540000   6.1690000
  13.1530000   7.3190000   9.6010000  14.5550000   5.9350000  11.0820000
  16.9750000   7.9140000   4.3780000  14.7470000   8.6490000   5.1650000
  12.1430000   8.4460000   8.2560000  12.9570000   9.1260000   6.0380000
  12.1690000   7.3360000  10.6390000  15.3580000   5.4540000  11.2470000
  13.5980000   5.9780000  12.0400000  16.7800000   8.5740000   3.1770000
  17.7900000   7.4470000   4.5230000  14.5760000   9.3250000   3.9410000
  12.3800000   6.6930000  11.8110000  11.3540000   7.8050000  10.5020000
  13.7360000   5.5330000  12.8680000  17.7640000   8.5570000   2.1400000
  15.5490000   9.2980000   2.9510000  13.7750000   9.8130000   3.7890000
  11.7130000   6.7160000  12.4870000  17.5530000   9.2000000   0.9680000
  18.5790000   8.0880000   2.2760000  15.3770000   9.9580000   1.6970000
  16.3350000   9.9150000   0.7390000  18.2190000   9.1770000   0.2920000
  14.5750000  10.4390000   1.5310000  16.1960000  10.3600000  -0.0890000
  17.7540000  28.3100000  89.5060000  17.5840000  28.9860000  88.2820000
  16.7790000  28.3150000  90.5100000  18.9980000  27.5800000  89.7380000
  16.7830000  29.4740000  88.1300000  18.5570000  28.9590000  87.2920000
  15.9650000  28.7870000  90.3790000  16.9490000  27.6350000  91.7230000
  19.9830000  27.5750000  88.7190000  19.1690000  26.9000000  90.9510000
  19.7870000  28.2350000  87.5180000  18.3850000  29.6190000  86.0380000
  15.9650000  27.6390000  92.7420000  18.1930000  26.9050000  91.9550000
  20.7970000  27.1080000  88.8640000  19.9830000  26.4280000  91.0820000
  20.7710000  28.2180000  86.4810000  17.5820000  30.1000000  85.8720000
  19.3420000  29.5760000  85.0800000  16.1600000  26.9800000  93.9420000
  15.1510000  28.1070000  92.5970000  18.3640000  26.2290000  93.1790000
  20.5600000  28.8610000  85.3090000  21.5860000  27.7490000  86.6170000
  19.2040000  30.0210000  84.2520000  15.1760000  26.9970000  94.9800000
  17.3910000  26.2560000  94.1690000  19.1650000  25.7410000  93.3310000
  21.2270000  28.8380000  84.6320000  15.3870000  26.3540000  96.1520000
  14.3620000  27.4660000  94.8430000  17.5630000  25.5960000  95.4230000
  16.6050000  25.6390000  96.3810000  14.7210000  26.3770000  96.8280000
  18.3660000  25.1150000  95.5880000  16.7440000  25.1940000  97.2090000
  16.2510000  18.4790000  47.3360000  16.0800000  19.1560000  46.1110000
  15.2750000  18.4840000  48.3390000  17.4950000  17.7500000  47.5670000
  15.2790000  19.6430000  45.9590000  17.0530000  19.1290000  45.1220000
  14.4610000  18.9570000  48.2080000  15.4450000  17.8040000  49.5520000
  18.4790000  17.7450000  46.5480000  17.6650000  17.0700000  48.7810000
  18.2830000  18.4040000  45.3480000  16.8810000  19.7880000  43.8680000
  14.4610000  17.8090000  50.5710000  16.6900000  17.0750000  49.7840000
  19.2930000  17.2770000  46.6930000  18.4790000  16.5970000  48.9110000
  19.2680000  18.3870000  44.3110000  16.0780000  20.2700000  43.7020000
  17.8390000  19.7450000  42.9090000  14.6570000  17.1500000  51.7720000
  13.6470000  18.2770000  50.4270000  16.8600000  16.3980000  51.0090000
  19.0560000  19.0310000  43.1380000  20.0820000  17.9190000  44.4470000
  17.7000000  20.1900000  42.0810000  13.6720000  17.1670000  52.8090000
  15.8870000  16.4250000  51.9980000  17.6610000  15.9110000  51.1600000
  19.7230000  19.0080000  42.4620000  13.8840000  16.5230000  53.9820000
  12.8580000  17.6350000  52.6730000  16.0590000  15.7660000  53.2520000
  15.1020000  15.8090000  54.2110000  13.2170000  16.5460000  54.6580000
  16.8620000  15.2840000  53.4180000  15.2400000  15.3630000  55.0390000
  17.2530000  25.0330000  75.4490000  17.0830000  25.7090000  74.2250000
  16.2770000  25.0380000  76.4530000  18.4970000  24.3040000  75.6810000
  16.2820000  26.1970000  74.0730000  18.0550000  25.6820000  73.2350000
  15.4640000  25.5100000  76.3220000  16.4480000  24.3580000  77.6660000
  19.4820000  24.2990000  74.6620000  18.6680000  23.6230000  76.8940000
  19.2860000  24.9580000  73.4620000  17.8830000  26.3420000  71.9810000
  15.4640000  24.3630000  78.6850000  17.6920000  23.6290000  77.8980000
  20.2960000  23.8310000  74.8070000  19.4810000  23.1510000  77.0250000
  20.2700000  24.9410000  72.4240000  17.0810000  26.8230000  71.8150000
  18.8410000  26.2990000  71.0230000  15.6590000  23.7030000  79.8860000
  14.6490000  24.8300000  78.5400000  17.8620000  22.9520000  79.1220000
  20.0590000  25.5850000  71.2520000  21.0850000  24.4720000  72.5610000
  18.7030000  26.7440000  70.1950000  14.6750000  23.7200000  80.9230000
  16.8900000  22.9790000  80.1120000  18.6640000  22.4640000  79.2740000
  20.7250000  25.5610000  70.5760000  14.8860000  23.0770000  82.0950000
  13.8600000  24.1890000  80.7870000  17.0620000  22.3190000  81.3660000
  16.1040000  22.3620000  82.3240000  14.2200000  23.1000000  82.7710000
  17.8640000  21.8380000  81.5320000  16.2420000  21.9170000  83.1520000
  15.9840000  19.6040000  19.2220000  15.8140000  20.2810000  17.9980000
  15.0080000  19.6090000  20.2260000  17.2280000  18.8750000  19.4540000
  15.0130000  20.7680000  17.8460000  16.7860000  20.2530000  17.0080000
  14.1950000  20.0820000  20.0950000  15.1790000  18.9290000  21.4390000
  18.2130000  18.8700000  18.4350000  17.3990000  18.1950000  20.6670000
  18.0170000  19.5290000  17.2340000  16.6150000  20.9130000  15.7540000
  14.1950000  18.9340000  22.4580000  16.4230000  18.2000000  21.6710000
  19.0270000  18.4020000  18.5800000  18.2130000  17.7220000  20.7980000
  19.0010000  19.5120000  16.1970000  15.8120000  21.3940000  15.5880000
  17.5720000  20.8700000  14.7950000  14.3900000  18.2750000  23.6580000
  13.3800000  19.4020000  22.3130000  16.5940000  17.5230000  22.8950000
  18.7900000  20.1560000  15.0250000  19.8160000  19.0430000  16.3330000
  17.4340000  21.3150000  13.9670000  13.4060000  18.2910000  24.6960000
  15.6210000  17.5500000  23.8850000  17.3950000  17.0360000  23.0470000
  19.4570000  20.1330000  14.3480000  13.6170000  17.6480000  25.8680000
  12.5910000  18.7600000  24.5590000  15.7930000  16.8900000  25.1380000
  14.8350000  16.9340000  26.0970000  12.9510000  17.6710000  26.5440000
  16.5950000  16.4090000  25.3040000  14.9740000  16.4880000  26.9250000
  16.4850000  22.8810000  33.2790000  16.3150000  23.5580000  32.0540000
  15.5100000  22.8860000  34.2820000  17.7300000  22.1520000  33.5110000
  15.5140000  24.0450000  31.9030000  17.2880000  23.5300000  31.0650000
  14.6960000  23.3580000  34.1520000  15.6800000  22.2060000  35.4960000
  18.7140000  22.1470000  32.4920000  17.9000000  21.4720000  34.7240000
  18.5180000  22.8060000  31.2910000  17.1160000  24.1900000  29.8110000
  14.6960000  22.2110000  36.5150000  16.9240000  21.4770000  35.7270000
  19.5280000  21.6790000  32.6360000  18.7140000  20.9990000  34.8550000
  19.5030000  22.7890000  30.2540000  16.3130000  24.6710000  29.6450000
  18.0730000  24.1470000  28.8520000  14.8920000  21.5510000  37.7150000
  13.8820000  22.6780000  36.3700000  17.0950000  20.8000000  36.9520000
  19.2910000  23.4330000  29.0810000  20.3170000  22.3200000  30.3900000
  17.9350000  24.5920000  28.0240000  13.9070000  21.5680000  38.7520000
  16.1220000  20.8270000  37.9410000  17.8960000  20.3120000  37.1040000
  19.9580000  23.4090000  28.4050000  14.1190000  20.9250000  39.9250000
  13.0930000  22.0370000  38.6160000  16.2940000  20.1670000  39.1950000
  15.3360000  20.2100000  40.1540000  13.4520000  20.9480000  40.6010000
  17.0970000  19.6860000  39.3610000  15.4750000  19.7650000  40.9820000
  17.9890000  32.7110000  75.4490000  17.8190000  33.3880000  74.2250000
  17.0130000  32.7160000  76.4530000  19.2330000  31.9820000  75.6810000
  17.0180000  33.8760000  74.0730000  18.7910000  33.3610000  73.2350000
  16.2000000  33.1890000  76.3220000  17.1840000  32.0360000  77.6660000
  20.2180000  31.9770000  74.6620000  19.4040000  31.3020000  76.8940000
  20.0220000  32.6360000  73.4620000  18.6200000  34.0210000  71.9810000
  16.2000000  32.0410000  78.6850000  18.4280000  31.3070000  77.8980000
  21.0320000  31.5100000  74.8070000  20.2180000  30.8300000  77.0250000
  21.0060000  32.6200000  72.4240000  17.8170000  34.5020000  71.8150000
  19.5770000  33.9780000  71.0230000  16.3950000  31.3820000  79.8860000
  15.3850000  32.5090000  78.5400000  18.5990000  30.6300000  79.1220000
  20.7950000  33.2630000  71.2520000  21.8210000  32.1510000  72.5610000
  19.4390000  34.4230000  70.1950000  15.4110000  31.3990000  80.9230000
  17.6260000  30.6580000  80.1120000  19.4000000  30.1430000  79.2740000
  21.4620000  33.2400000  70.5760000  15.6220000  30.7550000  82.0950000
  14.5960000  31.8680000  80.7870000  17.7980000  29.9980000  81.3660000
  16.8400000  30.0410000  82.3240000  14.9560000  30.7790000  82.7710000
  18.6000000  29.5170000  81.5320000  16.9790000  29.5960000  83.1520000
  15.4830000  16.3270000   5.1650000  15.3130000  17.0040000   3.9410000
  14.5070000  16.3320000   6.1690000  16.7270000  15.5980000   5.3970000
  14.5110000  17.4910000   3.7890000  16.2850000  16.9770000   2.9510000
  13.6940000  16.8050000   6.0380000  14.6780000  15.6520000   7.3820000
  17.7110000  15.5930000   4.3780000  16.8980000  14.9180000   6.6100000
  17.5160000  16.2520000   3.1770000  16.1130000  17.6360000   1.6970000
  13.6930000  15.6570000   8.4010000  15.9220000  14.9230000   7.6140000
  18.5260000  15.1250000   4.5230000  17.7110000  14.4450000   6.7410000
  18.5000000  16.2350000   2.1400000  15.3110000  18.1180000   1.5310000
  17.0710000  17.5930000   0.7390000  13.8890000  14.9980000   9.6010000
  12.8790000  16.1250000   8.2560000  16.0920000  14.2460000   8.8380000
  18.2890000  16.8790000   0.9680000  19.3150000  15.7670000   2.2760000
  16.9330000  18.0390000  -0.0890000  12.9050000  15.0150000  10.6390000
  15.1200000  14.2740000   9.8280000  16.8930000  13.7590000   8.9900000
  18.9550000  16.8560000   0.2920000  13.1160000  14.3710000  11.8110000
  12.0900000  15.4840000  10.5020000  15.2920000  13.6140000  11.0820000
  14.3340000  13.6570000  12.0400000  12.4490000  14.3940000  12.4870000
  16.0940000  13.1320000  11.2470000  14.4720000  13.2120000  12.8680000
  17.9270000  28.0300000  63.8410000  18.0970000  27.3540000  65.0650000
  18.9030000  28.0250000  62.8370000  16.6830000  28.7590000  63.6090000
  18.8990000  26.8660000  65.2170000  17.1250000  27.3810000  66.0550000
  19.7160000  27.5530000  62.9680000  18.7320000  28.7050000  61.6240000
  15.6980000  28.7640000  64.6280000  16.5120000  29.4400000  62.3960000
  15.8940000  28.1050000  65.8290000  17.2970000  26.7210000  67.3090000
  19.7160000  28.7000000  60.6050000  17.4880000  29.4340000  61.3920000
  14.8840000  29.2320000  64.4830000  15.6990000  29.9120000  62.2650000
  14.9100000  28.1220000  66.8660000  18.0990000  26.2400000  67.4750000
  16.3390000  26.7640000  68.2680000  19.5210000  29.3600000  59.4050000
  20.5310000  28.2330000  60.7500000  17.3180000  30.1110000  60.1680000
  15.1210000  27.4780000  68.0380000  14.0950000  28.5910000  66.7300000
  16.4770000  26.3190000  69.0960000  20.5050000  29.3430000  58.3670000
  18.2900000  30.0840000  59.1780000  16.5160000  30.5990000  60.0160000
  14.4550000  27.5020000  68.7150000  20.2940000  29.9860000  57.1950000
  21.3200000  28.8740000  58.5040000  18.1180000  30.7440000  57.9250000
  19.0760000  30.7010000  56.9660000  20.9600000  29.9630000  56.5190000
  17.3160000  31.2250000  57.7590000  18.9380000  31.1460000  56.1380000
  18.4910000  35.9880000  89.5060000  18.3200000  36.6650000  88.2820000
  17.5150000  35.9930000  90.5100000  19.7350000  35.2590000  89.7380000
  17.5190000  37.1520000  88.1300000  19.2930000  36.6380000  87.2920000
  16.7010000  36.4660000  90.3790000  17.6850000  35.3130000  91.7230000
  20.7190000  35.2540000  88.7190000  19.9050000  34.5790000  90.9510000
  20.5230000  35.9130000  87.5180000  19.1210000  37.2970000  86.0380000
  16.7010000  35.3180000  92.7420000  18.9290000  34.5840000  91.9550000
  21.5330000  34.7860000  88.8640000  20.7190000  34.1060000  91.0820000
  21.5080000  35.8960000  86.4810000  18.3180000  37.7790000  85.8720000
  20.0790000  37.2540000  85.0800000  16.8970000  34.6590000  93.9420000
  15.8870000  35.7860000  92.5970000  19.1000000  33.9070000  93.1790000
  21.2960000  36.5400000  85.3090000  22.3220000  35.4280000  86.6170000
  19.9400000  37.7000000  84.2520000  15.9120000  34.6760000  94.9800000
  18.1270000  33.9340000  94.1690000  19.9010000  33.4200000  93.3310000
  21.9630000  36.5170000  84.6320000  16.1240000  34.0320000  96.1520000
  15.0980000  35.1450000  94.8430000  18.2990000  33.2750000  95.4230000
  17.3410000  33.3180000  96.3810000  15.4570000  34.0550000  96.8280000
  19.1020000  32.7930000  95.5880000  17.4800000  32.8730000  97.2090000
  18.7250000  40.3900000  75.4490000  18.5550000  41.0670000  74.2250000
  17.7500000  40.3950000  76.4530000  19.9690000  39.6610000  75.6810000
  17.7540000  41.5540000  74.0730000  19.5280000  41.0390000  73.2350000
  16.9360000  40.8680000  76.3220000  17.9200000  39.7150000  77.6660000
  20.9540000  39.6560000  74.6620000  20.1400000  38.9810000  76.8940000
  20.7580000  40.3150000  73.4620000  19.3560000  41.6990000  71.9810000
  16.9360000  39.7200000  78.6850000  19.1640000  38.9860000  77.8980000
  21.7680000  39.1880000  74.8070000  20.9540000  38.5080000  77.0250000
  21.7420000  40.2980000  72.4240000  18.5530000  42.1800000  71.8150000
  20.3130000  41.6560000  71.0230000  17.1310000  39.0610000  79.8860000
  16.1220000  40.1870000  78.5400000  19.3350000  38.3090000  79.1220000
  21.5310000  40.9420000  71.2520000  22.5570000  39.8290000  72.5610000
  20.1750000  42.1010000  70.1950000  16.1470000  39.0770000  80.9230000
  18.3620000  38.3360000  80.1120000  20.1360000  37.8220000  79.2740000
  22.1980000  40.9190000  70.5760000  16.3580000  38.4340000  82.0950000
  15.3330000  39.5460000  80.7870000  18.5340000  37.6760000  81.3660000
  17.5760000  37.7190000  82.3240000  15.6920000  38.4570000  82.7710000
  19.3370000  37.1950000  81.5320000  17.7150000  37.2740000  83.1520000
  16.2190000  24.0060000   5.1650000  16.0490000  24.6820000   3.9410000
  15.2430000  24.0110000   6.1690000  17.4630000  23.2770000   5.3970000
  15.2470000  25.1700000   3.7890000  17.0210000  24.6550000   2.9510000
  14.4300000  24.4830000   6.0380000  15.4140000  23.3310000   7.3820000
  18.4480000  23.2720000   4.3780000  17.6340000  22.5960000   6.6100000
  18.2520000  23.9310000   3.1770000  16.8490000  25.3150000   1.6970000
  14.4300000  23.3360000   8.4010000  16.6580000  22.6020000   7.6140000
  19.2620000  22.8040000   4.5230000  18.4470000  22.1240000   6.7410000
  19.2360000  23.9140000   2.1400000  16.0470000  25.7960000   1.5310000
  17.8070000  25.2720000   0.7390000  14.6250000  22.6760000   9.6010000
  13.6150000  23.8030000   8.2560000  16.8280000  21.9250000   8.8380000
  19.0250000  24.5580000   0.9680000  20.0510000  23.4450000   2.2760000
  17.6690000  25.7170000  -0.0890000  13.6410000  22.6930000  10.6390000
  15.8560000  21.9520000   9.8280000  17.6300000  21.4370000   8.9900000
  19.6910000  24.5340000   0.2920000  13.8520000  22.0500000  11.8110000
  12.8260000  23.1620000  10.5020000  16.0280000  21.2920000  11.0820000
  15.0700000  21.3350000  12.0400000  13.1860000  22.0730000  12.4870000
  16.8300000  20.8110000  11.2470000  15.2080000  20.8900000  12.8680000
  18.1620000  32.4320000  49.7840000  18.3320000  31.7550000  51.0090000
  19.1380000  32.4270000  48.7810000  16.9180000  33.1610000  49.5520000
  19.1330000  31.2680000  51.1600000  17.3600000  31.7830000  51.9980000
  19.9510000  31.9540000  48.9110000  18.9670000  33.1070000  47.5670000
  15.9330000  33.1660000  50.5710000  16.7470000  33.8410000  48.3390000
  16.1290000  32.5070000  51.7720000  17.5310000  31.1230000  53.2520000
  19.9510000  33.1020000  46.5480000  17.7230000  33.8360000  47.3360000
  15.1190000  33.6340000  50.4270000  15.9330000  34.3140000  48.2080000
  15.1450000  32.5240000  52.8090000  18.3340000  30.6420000  53.4180000
  16.5740000  31.1660000  54.2110000  19.7560000  33.7610000  45.3480000
  20.7660000  32.6340000  46.6930000  17.5520000  34.5130000  46.1110000
  15.3560000  31.8800000  53.9820000  14.3300000  32.9930000  52.6730000
  16.7120000  30.7210000  55.0390000  20.7400000  33.7450000  44.3110000
  18.5250000  34.4860000  45.1220000  16.7510000  35.0000000  45.9590000
  14.6890000  31.9030000  54.6580000  20.5290000  34.3880000  43.1380000
  21.5550000  33.2760000  44.4470000  18.3530000  35.1460000  43.8680000
  19.3110000  35.1030000  42.9090000  21.1950000  34.3650000  42.4620000
  17.5510000  35.6270000  43.7020000  19.1720000  35.5480000  42.0810000
  17.8950000  33.5570000  21.6710000  18.0660000  32.8800000  22.8950000
  18.8710000  33.5520000  20.6670000  16.6510000  34.2860000  21.4390000
  18.8670000  32.3930000  23.0470000  17.0930000  32.9080000  23.8850000
  19.6850000  33.0790000  20.7980000  18.7010000  34.2320000  19.4540000
  15.6670000  34.2910000  22.4580000  16.4810000  34.9660000  20.2260000
  15.8630000  33.6320000  23.6580000  17.2650000  32.2480000  25.1380000
  19.6850000  34.2270000  18.4350000  17.4560000  34.9610000  19.2220000
  14.8530000  34.7590000  22.3130000  15.6670000  35.4390000  20.0950000
  14.8780000  33.6490000  24.6960000  18.0680000  31.7670000  25.3040000
  16.3070000  32.2910000  26.0970000  19.4890000  34.8860000  17.2340000
  20.4990000  33.7590000  18.5800000  17.2860000  35.6380000  17.9980000
  15.0900000  33.0050000  25.8680000  14.0640000  34.1180000  24.5590000
  16.4460000  31.8460000  26.9250000  20.4730000  34.8690000  16.1970000
  18.2590000  35.6110000  17.0080000  16.4850000  36.1250000  17.8460000
  14.4230000  33.0280000  26.5440000  20.2620000  35.5130000  15.0250000
  21.2880000  34.4010000  16.3330000  18.0870000  36.2710000  15.7540000
  19.0440000  36.2270000  14.7950000  20.9290000  35.4900000  14.3480000
  17.2840000  36.7520000  15.5880000  18.9060000  36.6730000  13.9670000
  17.9580000  38.2380000  33.2790000  17.7870000  38.9150000  32.0540000
  16.9820000  38.2430000  34.2820000  19.2020000  37.5090000  33.5110000
  16.9860000  39.4020000  31.9030000  18.7600000  38.8870000  31.0650000
  16.1680000  38.7160000  34.1520000  17.1530000  37.5630000  35.4960000
  20.1860000  37.5040000  32.4920000  19.3720000  36.8290000  34.7240000
  19.9910000  38.1630000  31.2910000  18.5880000  39.5470000  29.8110000
  16.1680000  37.5680000  36.5150000  18.3970000  36.8340000  35.7270000
  21.0000000  37.0360000  32.6360000  20.1860000  36.3560000  34.8550000
  20.9750000  38.1460000  30.2540000  17.7850000  40.0290000  29.6450000
  19.5460000  39.5040000  28.8520000  16.3640000  36.9090000  37.7150000
  15.3540000  38.0360000  36.3700000  18.5670000  36.1570000  36.9520000
  20.7640000  38.7900000  29.0810000  21.7890000  37.6770000  30.3900000
  19.4070000  39.9490000  28.0240000  15.3800000  36.9260000  38.7520000
  17.5940000  36.1840000  37.9410000  19.3680000  35.6700000  37.1040000
  21.4300000  38.7670000  28.4050000  15.5910000  36.2820000  39.9250000
  14.5650000  37.3940000  38.6160000  17.7660000  35.5250000  39.1950000
  16.8090000  35.5680000  40.1540000  14.9240000  36.3050000  40.6010000
  18.5690000  35.0430000  39.3610000  16.9470000  35.1220000  40.9820000
  18.4590000  41.5150000  47.3360000  18.2890000  42.1920000  46.1110000
  17.4830000  41.5200000  48.3390000  19.7030000  40.7860000  47.5670000
  17.4870000  42.6790000  45.9590000  19.2610000  42.1640000  45.1220000
  16.6700000  41.9920000  48.2080000  17.6540000  40.8400000  49.5520000
  20.6870000  40.7810000  46.5480000  19.8740000  40.1060000  48.7810000
  20.4920000  41.4400000  45.3480000  19.0890000  42.8240000  43.8680000
  16.6690000  40.8450000  50.5710000  18.8980000  40.1110000  49.7840000
  21.5020000  40.3130000  46.6930000  20.6870000  39.6330000  48.9110000
  21.4760000  41.4230000  44.3110000  18.2870000  43.3050000  43.7020000
  20.0470000  42.7810000  42.9090000  16.8650000  40.1860000  51.7720000
  15.8550000  41.3120000  50.4270000  19.0680000  39.4340000  51.0090000
  21.2650000  42.0670000  43.1380000  22.2910000  40.9540000  44.4470000
  19.9090000  43.2260000  42.0810000  15.8810000  40.2020000  52.8090000
  18.0960000  39.4610000  51.9980000  19.8700000  38.9460000  51.1600000
  21.9310000  42.0430000  42.4620000  16.0920000  39.5590000  53.9820000
  15.0660000  40.6710000  52.6730000  18.2680000  38.8010000  53.2520000
  17.3100000  38.8440000  54.2110000  15.4260000  39.5820000  54.6580000
  19.0700000  38.3200000  53.4180000  17.4480000  38.3990000  55.0390000
  19.3990000  43.3880000  63.8410000  19.5700000  42.7110000  65.0650000
  20.3750000  43.3820000  62.8370000  18.1550000  44.1170000  63.6090000
  20.3710000  42.2230000  65.2170000  18.5970000  42.7380000  66.0550000
  21.1890000  42.9100000  62.9680000  20.2040000  44.0620000  61.6240000
  17.1710000  44.1220000  64.6280000  17.9840000  44.7970000  62.3960000
  17.3660000  43.4620000  65.8290000  18.7690000  42.0780000  67.3090000
  21.1890000  44.0580000  60.6050000  18.9600000  44.7920000  61.3920000
  16.3560000  44.5890000  64.4830000  17.1710000  45.2690000  62.2650000
  16.3820000  43.4790000  66.8660000  19.5710000  41.5970000  67.4750000
  17.8110000  42.1210000  68.2680000  20.9930000  44.7170000  59.4050000
  22.0030000  43.5900000  60.7500000  18.7900000  45.4680000  60.1680000
  16.5930000  42.8360000  68.0380000  15.5670000  43.9480000  66.7300000
  17.9500000  41.6760000  69.0960000  21.9770000  44.7000000  58.3670000
  19.7620000  45.4410000  59.1780000  17.9890000  45.9560000  60.0160000
  15.9270000  42.8590000  68.7150000  21.7660000  45.3440000  57.1950000
  22.7920000  44.2310000  58.5040000  19.5910000  46.1010000  57.9250000
  20.5480000  46.0580000  56.9660000  22.4330000  45.3200000  56.5190000
  18.7880000  46.5820000  57.7590000  20.4100000  46.5030000  56.1380000
  19.9000000  46.6640000  77.8980000  20.0710000  45.9880000  79.1220000
  20.8760000  46.6590000  76.8940000  18.6560000  47.3940000  77.6660000
  20.8720000  45.5000000  79.2740000  19.0980000  46.0150000  80.1120000
  21.6900000  46.1870000  77.0250000  20.7060000  47.3390000  75.6810000
  17.6720000  47.3980000  78.6850000  18.4860000  48.0740000  76.4530000
  17.8680000  46.7390000  79.8860000  19.2700000  45.3550000  81.3660000
  21.6900000  47.3340000  74.6620000  19.4610000  48.0680000  75.4490000
  16.8580000  47.8660000  78.5400000  17.6720000  48.5460000  76.3220000
  16.8830000  46.7560000  80.9230000  20.0730000  44.8740000  81.5320000
  18.3120000  45.3980000  82.3240000  21.4940000  47.9940000  73.4620000
  22.5040000  46.8670000  74.8070000  19.2910000  48.7450000  74.2250000
  17.0950000  46.1120000  82.0950000  16.0690000  47.2250000  80.7870000
  18.4510000  44.9530000  83.1520000  22.4790000  47.9770000  72.4240000
  20.2640000  48.7180000  73.2350000  18.4900000  49.2330000  74.0730000
  16.4280000  46.1360000  82.7710000  22.2670000  48.6200000  71.2520000
  23.2930000  47.5080000  72.5610000  20.0920000  49.3780000  71.9810000
  21.0490000  49.3350000  71.0230000  22.9340000  48.5970000  70.5760000
  19.2890000  49.8590000  71.8150000  20.9110000  49.7800000  70.1950000
  19.9630000  51.3450000  89.5060000  19.7920000  52.0220000  88.2820000
  18.9870000  51.3500000  90.5100000  21.2070000  50.6160000  89.7380000
  18.9910000  52.5100000  88.1300000  20.7650000  51.9950000  87.2920000
  18.1730000  51.8230000  90.3790000  19.1580000  50.6700000  91.7230000
  22.1910000  50.6110000  88.7190000  21.3770000  49.9360000  90.9510000
  21.9960000  51.2710000  87.5180000  20.5930000  52.6550000  86.0380000
  18.1730000  50.6750000  92.7420000  20.4020000  49.9410000  91.9550000
  23.0060000  50.1440000  88.8640000  22.1910000  49.4640000  91.0820000
  22.9800000  51.2540000  86.4810000  19.7900000  53.1360000  85.8720000
  21.5510000  52.6120000  85.0800000  18.3690000  50.0160000  93.9420000
  17.3590000  51.1430000  92.5970000  20.5720000  49.2640000  93.1790000
  22.7690000  51.8970000  85.3090000  23.7950000  50.7850000  86.6170000
  21.4120000  53.0570000  84.2520000  17.3850000  50.0330000  94.9800000
  19.6000000  49.2920000  94.1690000  21.3730000  48.7770000  93.3310000
  23.4350000  51.8740000  84.6320000  17.5960000  49.3890000  96.1520000
  16.5700000  50.5020000  94.8430000  19.7710000  48.6320000  95.4230000
  18.8140000  48.6750000  96.3810000  16.9290000  49.4130000  96.8280000
  20.5740000  48.1510000  95.5880000  18.9520000  48.2300000  97.2090000
  17.3940000  30.2800000   7.6140000  17.5650000  29.6030000   8.8380000
  18.3700000  30.2750000   6.6100000  16.1500000  31.0090000   7.3820000
  18.3660000  29.1160000   8.9900000  16.5920000  29.6310000   9.8280000
  19.1840000  29.8030000   6.7410000  18.1990000  30.9550000   5.3970000
  15.1660000  31.0140000   8.4010000  15.9790000  31.6890000   6.1690000
  15.3610000  30.3550000   9.6010000  16.7640000  28.9710000  11.0820000
  19.1840000  30.9500000   4.3780000  16.9550000  31.6840000   5.1650000
  14.3510000  31.4820000   8.2560000  15.1660000  32.1620000   6.0380000
  14.3770000  30.3720000  10.6390000  17.5660000  28.4900000  11.2470000
  15.8060000  29.0140000  12.0400000  18.9880000  31.6100000   3.1770000
  19.9980000  30.4830000   4.5230000  16.7850000  32.3610000   3.9410000
  14.5880000  29.7280000  11.8110000  13.5620000  30.8410000  10.5020000
  15.9450000  28.5690000  12.8680000  19.9720000  31.5930000   2.1400000
  17.7570000  32.3340000   2.9510000  15.9840000  32.8490000   3.7890000
  13.9220000  29.7520000  12.4870000  19.7610000  32.2360000   0.9680000
  20.7870000  31.1240000   2.2760000  17.5860000  32.9940000   1.6970000
  18.5430000  32.9510000   0.7390000  20.4280000  32.2130000   0.2920000
  16.7830000  33.4750000   1.5310000  18.4050000  33.3960000  -0.0890000
  18.6310000  41.2360000  21.6710000  18.8020000  40.5590000  22.8950000
  19.6070000  41.2300000  20.6670000  17.3870000  41.9650000  21.4390000
  19.6030000  40.0710000  23.0470000  17.8290000  40.5860000  23.8850000
  20.4210000  40.7580000  20.7980000  19.4370000  41.9110000  19.4540000
  16.4030000  41.9700000  22.4580000  17.2170000  42.6450000  20.2260000
  16.5990000  41.3100000  23.6580000  18.0010000  39.9260000  25.1380000
  20.4210000  41.9060000  18.4350000  18.1930000  42.6400000  19.2220000
  15.5890000  42.4370000  22.3130000  16.4030000  43.1170000  20.0950000
  15.6140000  41.3270000  24.6960000  18.8040000  39.4450000  25.3040000
  17.0430000  39.9690000  26.0970000  20.2250000  42.5650000  17.2340000
  21.2350000  41.4380000  18.5800000  18.0220000  43.3160000  17.9980000
  15.8260000  40.6840000  25.8680000  14.8000000  41.7960000  24.5590000
  17.1820000  39.5240000  26.9250000  21.2100000  42.5480000  16.1970000
  18.9950000  43.2890000  17.0080000  17.2210000  43.8040000  17.8460000
  15.1590000  40.7070000  26.5440000  20.9980000  43.1920000  15.0250000
  22.0240000  42.0790000  16.3330000  18.8230000  43.9490000  15.7540000
  19.7810000  43.9060000  14.7950000  21.6650000  43.1680000  14.3480000
  18.0200000  44.4300000  15.5880000  19.6420000  44.3510000  13.9670000
  18.6940000  45.9170000  33.2790000  18.5230000  46.5930000  32.0540000
  17.7180000  45.9220000  34.2820000  19.9380000  45.1870000  33.5110000
  17.7220000  47.0810000  31.9030000  19.4960000  46.5660000  31.0650000
  16.9040000  46.3940000  34.1520000  17.8890000  45.2420000  35.4960000
  20.9220000  45.1830000  32.4920000  20.1080000  44.5070000  34.7240000
  20.7270000  45.8420000  31.2910000  19.3240000  47.2260000  29.8110000
  16.9040000  45.2470000  36.5150000  19.1330000  44.5120000  35.7270000
  21.7370000  44.7150000  32.6360000  20.9220000  44.0350000  34.8550000
  21.7110000  45.8250000  30.2540000  18.5220000  47.7070000  29.6450000
  20.2820000  47.1830000  28.8520000  17.1000000  44.5870000  37.7150000
  16.0900000  45.7140000  36.3700000  19.3030000  43.8360000  36.9520000
  21.5000000  46.4680000  29.0810000  22.5260000  45.3560000  30.3900000
  20.1430000  47.6280000  28.0240000  16.1160000  44.6040000  38.7520000
  18.3310000  43.8630000  37.9410000  20.1040000  43.3480000  37.1040000
  22.1660000  46.4450000  28.4050000  16.3270000  43.9610000  39.9250000
  15.3010000  45.0730000  38.6160000  18.5020000  43.2030000  39.1950000
  17.5450000  43.2460000  40.1540000  15.6600000  43.9840000  40.6010000
  19.3050000  42.7220000  39.3610000  17.6830000  42.8010000  40.9820000
  18.1300000  37.9590000   7.6140000  18.3010000  37.2820000   8.8380000
  19.1060000  37.9540000   6.6100000  16.8860000  38.6880000   7.3820000
  19.1020000  36.7950000   8.9900000  17.3280000  37.3090000   9.8280000
  19.9200000  37.4810000   6.7410000  18.9350000  38.6340000   5.3970000
  15.9020000  38.6930000   8.4010000  16.7160000  39.3680000   6.1690000
  16.0970000  38.0340000   9.6010000  17.5000000  36.6490000  11.0820000
  19.9200000  38.6290000   4.3780000  17.6910000  39.3630000   5.1650000
  15.0870000  39.1610000   8.2560000  15.9020000  39.8410000   6.0380000
  15.1130000  38.0500000  10.6390000  18.3030000  36.1680000  11.2470000
  16.5420000  36.6920000  12.0400000  19.7240000  39.2880000   3.1770000
  20.7340000  38.1610000   4.5230000  17.5210000  40.0400000   3.9410000
  15.3240000  37.4070000  11.8110000  14.2980000  38.5190000  10.5020000
  16.6810000  36.2470000  12.8680000  20.7080000  39.2710000   2.1400000
  18.4930000  40.0120000   2.9510000  16.7200000  40.5270000   3.7890000
  14.6580000  37.4300000  12.4870000  20.4970000  39.9150000   0.9680000
  21.5230000  38.8020000   2.2760000  18.3220000  40.6720000   1.6970000
  19.2790000  40.6290000   0.7390000  21.1640000  39.8920000   0.2920000
  17.5190000  41.1530000   1.5310000  19.1410000  41.0740000  -0.0890000
  20.1980000  55.7470000  75.4490000  20.0270000  56.4240000  74.2250000
  19.2220000  55.7520000  76.4530000  21.4420000  55.0180000  75.6810000
  19.2260000  56.9110000  74.0730000  21.0000000  56.3970000  73.2350000
  18.4080000  56.2250000  76.3220000  19.3920000  55.0720000  77.6660000
  22.4260000  55.0130000  74.6620000  21.6120000  54.3380000  76.8940000
  22.2300000  55.6720000  73.4620000  20.8280000  57.0560000  71.9810000
  18.4080000  55.0770000  78.6850000  20.6370000  54.3430000  77.8980000
  23.2400000  54.5450000  74.8070000  22.4260000  53.8650000  77.0250000
  23.2150000  55.6550000  72.4240000  20.0250000  57.5380000  71.8150000
  21.7860000  57.0130000  71.0230000  18.6040000  54.4180000  79.8860000
  17.5940000  55.5450000  78.5400000  20.8070000  53.6660000  79.1220000
  23.0030000  56.2990000  71.2520000  24.0290000  55.1870000  72.5610000
  21.6470000  57.4580000  70.1950000  17.6190000  54.4350000  80.9230000
  19.8340000  53.6930000  80.1120000  21.6080000  53.1790000  79.2740000
  23.6700000  56.2760000  70.5760000  17.8310000  53.7910000  82.0950000
  16.8050000  54.9030000  80.7870000  20.0060000  53.0340000  81.3660000
  19.0490000  53.0770000  82.3240000  17.1640000  53.8140000  82.7710000
  20.8090000  52.5520000  81.5320000  19.1870000  52.6320000  83.1520000
  20.6990000  59.0240000  89.5060000  20.5280000  59.7010000  88.2820000
  19.7230000  59.0290000  90.5100000  21.9430000  58.2950000  89.7380000
  19.7270000  60.1880000  88.1300000  21.5010000  59.6730000  87.2920000
  18.9090000  59.5020000  90.3790000  19.8940000  58.3490000  91.7230000
  22.9270000  58.2900000  88.7190000  22.1140000  57.6150000  90.9510000
  22.7320000  58.9490000  87.5180000  21.3290000  60.3330000  86.0380000
  18.9090000  58.3540000  92.7420000  21.1380000  57.6200000  91.9550000
  23.7420000  57.8220000  88.8640000  22.9270000  57.1420000  91.0820000
  23.7160000  58.9320000  86.4810000  20.5270000  60.8140000  85.8720000
  22.2870000  60.2900000  85.0800000  19.1050000  57.6950000  93.9420000
  18.0950000  58.8220000  92.5970000  21.3080000  56.9430000  93.1790000
  23.5050000  59.5760000  85.3090000  24.5310000  58.4630000  86.6170000
  22.1480000  60.7350000  84.2520000  18.1210000  57.7110000  94.9800000
  20.3360000  56.9700000  94.1690000  22.1090000  56.4560000  93.3310000
  24.1710000  59.5530000  84.6320000  18.3320000  57.0680000  96.1520000
  17.3060000  58.1800000  94.8430000  20.5070000  56.3100000  95.4230000
  19.5500000  56.3530000  96.3810000  17.6650000  57.0910000  96.8280000
  21.3100000  55.8290000  95.5880000  19.6880000  55.9080000  97.2090000
  20.1350000  51.0660000  63.8410000  20.3060000  50.3890000  65.0650000
  21.1110000  51.0610000  62.8370000  18.8910000  51.7950000  63.6090000
  21.1070000  49.9020000  65.2170000  19.3330000  50.4170000  66.0550000
  21.9250000  50.5890000  62.9680000  20.9400000  51.7410000  61.6240000
  17.9070000  51.8000000  64.6280000  18.7210000  52.4750000  62.3960000
  18.1020000  51.1410000  65.8290000  19.5050000  49.7570000  67.3090000
  21.9250000  51.7360000  60.6050000  19.6960000  52.4700000  61.3920000
  17.0930000  52.2680000  64.4830000  17.9070000  52.9480000  62.2650000
  17.1180000  51.1580000  66.8660000  20.3080000  49.2760000  67.4750000
  18.5470000  49.8000000  68.2680000  21.7290000  52.3950000  59.4050000
  22.7390000  51.2690000  60.7500000  19.5260000  53.1470000  60.1680000
  17.3290000  50.5140000  68.0380000  16.3040000  51.6270000  66.7300000
  18.6860000  49.3550000  69.0960000  22.7130000  52.3790000  58.3670000
  20.4980000  53.1200000  59.1780000  18.7250000  53.6340000  60.0160000
  16.6630000  50.5370000  68.7150000  22.5020000  53.0220000  57.1950000
  23.5280000  51.9100000  58.5040000  20.3270000  53.7800000  57.9250000
  21.2840000  53.7370000  56.9660000  23.1690000  52.9990000  56.5190000
  19.5240000  54.2610000  57.7590000  21.1460000  54.1820000  56.1380000
  23.0480000  87.3070000  21.6710000  23.2190000  86.6300000  22.8950000
  24.0240000  87.3020000  20.6670000  21.8040000  88.0360000  21.4390000
  24.0200000  86.1430000  23.0470000  22.2460000  86.6580000  23.8850000
  24.8380000  86.8300000  20.7980000  23.8530000  87.9820000  19.4540000
  20.8200000  88.0410000  22.4580000  21.6340000  88.7160000  20.2260000
  21.0150000  87.3820000  23.6580000  22.4180000  85.9980000  25.1380000
  24.8380000  87.9770000  18.4350000  22.6090000  88.7110000  19.2220000
  20.0050000  88.5090000  22.3130000  20.8200000  89.1890000  20.0950000
  20.0310000  87.3990000  24.6960000  23.2200000  85.5170000  25.3040000
  21.4600000  86.0410000  26.0970000  24.6420000  88.6370000  17.2340000
  25.6520000  87.5100000  18.5800000  22.4390000  89.3880000  17.9980000
  20.2420000  86.7550000  25.8680000  19.2160000  87.8680000  24.5590000
  21.5990000  85.5960000  26.9250000  25.6260000  88.6200000  16.1970000
  23.4110000  89.3610000  17.0080000  21.6380000  89.8760000  17.8460000
  19.5760000  86.7790000  26.5440000  25.4150000  89.2630000  15.0250000
  26.4410000  88.1510000  16.3330000  23.2400000  90.0210000  15.7540000
  24.1970000  89.9780000  14.7950000  26.0820000  89.2400000  14.3480000
  22.4370000  90.5020000  15.5880000  24.0590000  90.4230000  13.9670000
  24.6140000 101.8190000  75.4490000  24.4440000 102.4950000  74.2250000
  23.6390000 101.8240000  76.4530000  25.8580000 101.0900000  75.6810000
  23.6430000 102.9830000  74.0730000  25.4160000 102.4680000  73.2350000
  22.8250000 102.2960000  76.3220000  23.8090000 101.1440000  77.6660000
  26.8430000 101.0850000  74.6620000  26.0290000 100.4090000  76.8940000
  26.6470000 101.7440000  73.4620000  25.2450000 103.1280000  71.9810000
  22.8250000 101.1490000  78.6850000  25.0530000 100.4150000  77.8980000
  27.6570000 100.6170000  74.8070000  26.8430000  99.9370000  77.0250000
  27.6310000 101.7270000  72.4240000  24.4420000 103.6090000  71.8150000
  26.2020000 103.0850000  71.0230000  23.0200000 100.4890000  79.8860000
  22.0100000 101.6160000  78.5400000  25.2240000  99.7380000  79.1220000
  27.4200000 102.3710000  71.2520000  28.4460000 101.2580000  72.5610000
  26.0640000 103.5300000  70.1950000  22.0360000 100.5060000  80.9230000
  24.2510000  99.7650000  80.1120000  26.0250000  99.2500000  79.2740000
  28.0870000 102.3470000  70.5760000  22.2470000  99.8630000  82.0950000
  21.2210000 100.9750000  80.7870000  24.4230000  99.1050000  81.3660000
  23.4650000  99.1480000  82.3240000  21.5810000  99.8860000  82.7710000
  25.2260000  98.6240000  81.5320000  23.6040000  98.7030000  83.1520000
  24.0510000  93.8610000  49.7840000  24.2210000  93.1840000  51.0090000
  25.0260000  93.8560000  48.7810000  22.8070000  94.5900000  49.5520000
  25.0220000  92.6970000  51.1600000  23.2490000  93.2110000  51.9980000
  25.8400000  93.3830000  48.9110000  24.8560000  94.5360000  47.5670000
  21.8220000  94.5950000  50.5710000  22.6360000  95.2700000  48.3390000
  22.0180000  93.9360000  51.7720000  23.4200000  92.5520000  53.2520000
  25.8400000  94.5310000  46.5480000  23.6120000  95.2650000  47.3360000
  21.0080000  95.0630000  50.4270000  21.8220000  95.7430000  48.2080000
  21.0340000  93.9530000  52.8090000  24.2230000  92.0700000  53.4180000
  22.4630000  92.5950000  54.2110000  25.6450000  95.1900000  45.3480000
  26.6550000  94.0630000  46.6930000  23.4410000  95.9420000  46.1110000
  21.2450000  93.3090000  53.9820000  20.2190000  94.4210000  52.6730000
  22.6010000  92.1490000  55.0390000  26.6290000  95.1730000  44.3110000
  24.4140000  95.9140000  45.1220000  22.6400000  96.4290000  45.9590000
  20.5780000  93.3320000  54.6580000  26.4180000  95.8170000  43.1380000
  27.4440000  94.7040000  44.4470000  24.2420000  96.5740000  43.8680000
  25.2000000  96.5310000  42.9090000  27.0840000  95.7940000  42.4620000
  23.4400000  97.0560000  43.7020000  25.0610000  96.9760000  42.0810000
  22.5470000  84.0300000   7.6140000  22.7170000  83.3540000   8.8380000
  23.5230000  84.0250000   6.6100000  21.3030000  84.7600000   7.3820000
  23.5190000  82.8660000   8.9900000  21.7450000  83.3810000   9.8280000
  24.3360000  83.5530000   6.7410000  23.3520000  84.7050000   5.3970000
  20.3180000  84.7640000   8.4010000  21.1320000  85.4400000   6.1690000
  20.5140000  84.1050000   9.6010000  21.9170000  82.7210000  11.0820000
  24.3360000  84.7000000   4.3780000  22.1080000  85.4340000   5.1650000
  19.5040000  85.2320000   8.2560000  20.3190000  85.9120000   6.0380000
  19.5300000  84.1220000  10.6390000  22.7190000  82.2400000  11.2470000
  20.9590000  82.7640000  12.0400000  24.1410000  85.3600000   3.1770000
  25.1510000  84.2330000   4.5230000  21.9380000  86.1110000   3.9410000
  19.7410000  83.4780000  11.8110000  18.7150000  84.5910000  10.5020000
  21.0970000  82.3190000  12.8680000  25.1250000  85.3430000   2.1400000
  22.9100000  86.0840000   2.9510000  21.1360000  86.5990000   3.7890000
  19.0750000  83.5020000  12.4870000  24.9140000  85.9860000   0.9680000
  25.9400000  84.8740000   2.2760000  22.7380000  86.7440000   1.6970000
  23.6960000  86.7010000   0.7390000  25.5800000  85.9630000   0.2920000
  21.9360000  87.2250000   1.5310000  23.5580000  87.1460000  -0.0890000
  24.1130000  98.5420000  61.3920000  23.9430000  99.2190000  60.1680000
  23.1370000  98.5470000  62.3960000  25.3570000  97.8130000  61.6240000
  23.1410000  99.7060000  60.0160000  24.9150000  99.1910000  59.1780000
  22.3240000  99.0190000  62.2650000  23.3080000  97.8670000  63.6090000
  26.3420000  97.8080000  60.6050000  25.5280000  97.1330000  62.8370000
  26.1460000  98.4670000  59.4050000  24.7430000  99.8510000  57.9250000
  22.3240000  97.8720000  64.6280000  24.5520000  97.1380000  63.8410000
  27.1560000  97.3400000  60.7500000  26.3410000  96.6600000  62.9680000
  27.1300000  98.4500000  58.3670000  23.9410000 100.3320000  57.7590000
  25.7010000  99.8080000  56.9660000  22.5190000  97.2130000  65.8290000
  21.5090000  98.3390000  64.4830000  24.7220000  96.4610000  65.0650000
  26.9190000  99.0940000  57.1950000  27.9450000  97.9810000  58.5040000
  25.5630000 100.2530000  56.1380000  21.5350000  97.2290000  66.8660000
  23.7500000  96.4880000  66.0550000  25.5240000  95.9730000  65.2170000
  27.5850000  99.0700000  56.5190000  21.7460000  96.5860000  68.0380000
  20.7200000  97.6980000  66.7300000  23.9220000  95.8280000  67.3090000
  22.9640000  95.8710000  68.2680000  21.0800000  96.6090000  68.7150000
  24.7240000  95.3470000  67.4750000  23.1020000  95.4260000  69.0960000
  25.5540000 103.6910000  91.9550000  25.7250000 103.0150000  93.1790000
  26.5300000 103.6860000  90.9510000  24.3100000 104.4210000  91.7230000
  26.5260000 102.5270000  93.3310000  24.7520000 103.0420000  94.1690000
  27.3440000 103.2140000  91.0820000  26.3600000 104.3660000  89.7380000
  23.3260000 104.4250000  92.7420000  24.1400000 105.1010000  90.5100000
  23.5220000 103.7660000  93.9420000  24.9240000 102.3820000  95.4230000
  27.3440000 104.3610000  88.7190000  25.1160000 105.0950000  89.5060000
  22.5120000 104.8930000  92.5970000  23.3260000 105.5730000  90.3790000
  22.5370000 103.7830000  94.9800000  25.7270000 101.9010000  95.5880000
  23.9660000 102.4250000  96.3810000  27.1480000 105.0210000  87.5180000
  28.1580000 103.8940000  88.8640000  24.9450000 105.7720000  88.2820000
  22.7490000 103.1390000  96.1520000  21.7230000 104.2520000  94.8430000
  24.1050000 101.9800000  97.2090000  28.1330000 105.0040000  86.4810000
  25.9180000 105.7450000  87.2920000  24.1440000 106.2600000  88.1300000
  22.0820000 103.1630000  96.8280000  27.9210000 105.6470000  85.3090000
  28.9470000 104.5350000  86.6170000  25.7460000 106.4050000  86.0380000
  26.7040000 106.3620000  85.0800000  28.5880000 105.6240000  84.6320000
  24.9430000 106.8860000  85.8720000  26.5650000 106.8070000  84.2520000
  18.9290000  50.3180000  19.2220000  18.7580000  50.9950000  17.9980000
  17.9530000  50.3230000  20.2260000  20.1730000  49.5890000  19.4540000
  17.9570000  51.4830000  17.8460000  19.7310000  50.9680000  17.0080000
  17.1390000  50.7960000  20.0950000  18.1230000  49.6430000  21.4390000
  21.1570000  49.5840000  18.4350000  20.3430000  48.9090000  20.6670000
  20.9610000  50.2440000  17.2340000  19.5590000  51.6280000  15.7540000
  17.1390000  49.6480000  22.4580000  19.3680000  48.9140000  21.6710000
  21.9710000  49.1170000  18.5800000  21.1570000  48.4370000  20.7980000
  21.9460000  50.2270000  16.1970000  18.7560000  52.1090000  15.5880000
  20.5170000  51.5850000  14.7950000  17.3350000  48.9890000  23.6580000
  16.3250000  50.1160000  22.3130000  19.5380000  48.2380000  22.8950000
  21.7350000  50.8700000  15.0250000  22.7600000  49.7580000  16.3330000
  20.3780000  52.0300000  13.9670000  16.3510000  49.0060000  24.6960000
  18.5650000  48.2650000  23.8850000  20.3390000  47.7500000  23.0470000
  22.4010000  50.8470000  14.3480000  16.5620000  48.3620000  25.8680000
  15.5360000  49.4750000  24.5590000  18.7370000  47.6050000  25.1380000
  17.7800000  47.6480000  26.0970000  15.8950000  48.3860000  26.5440000
  19.5400000  47.1240000  25.3040000  17.9180000  47.2030000  26.9250000
  20.3700000  55.4680000  49.7840000  20.5410000  54.7910000  51.0090000
  21.3460000  55.4630000  48.7810000  19.1260000  56.1970000  49.5520000
  21.3420000  54.3040000  51.1600000  19.5680000  54.8180000  51.9980000
  22.1600000  54.9900000  48.9110000  21.1750000  56.1430000  47.5670000
  18.1420000  56.2020000  50.5710000  18.9550000  56.8770000  48.3390000
  18.3370000  55.5430000  51.7720000  19.7400000  54.1590000  53.2520000
  22.1600000  56.1380000  46.5480000  19.9310000  56.8720000  47.3360000
  17.3270000  56.6700000  50.4270000  18.1420000  57.3500000  48.2080000
  17.3530000  55.5600000  52.8090000  20.5420000  53.6770000  53.4180000
  18.7820000  54.2020000  54.2110000  21.9640000  56.7970000  45.3480000
  22.9740000  55.6700000  46.6930000  19.7610000  57.5490000  46.1110000
  17.5640000  54.9160000  53.9820000  16.5380000  56.0280000  52.6730000
  18.9210000  53.7560000  55.0390000  22.9480000  56.7800000  44.3110000
  20.7330000  57.5220000  45.1220000  18.9600000  58.0360000  45.9590000
  16.8980000  54.9390000  54.6580000  22.7370000  57.4240000  43.1380000
  23.7630000  56.3110000  44.4470000  20.5620000  58.1810000  43.8680000
  21.5190000  58.1380000  42.9090000  23.4040000  57.4010000  42.4620000
  19.7590000  58.6630000  43.7020000  21.3810000  58.5830000  42.0810000
  18.8660000  45.6370000   7.6140000  19.0370000  44.9610000   8.8380000
  19.8420000  45.6320000   6.6100000  17.6220000  46.3670000   7.3820000
  19.8380000  44.4730000   8.9900000  18.0640000  44.9880000   9.8280000
  20.6560000  45.1600000   6.7410000  19.6720000  46.3120000   5.3970000
  16.6380000  46.3710000   8.4010000  17.4520000  47.0470000   6.1690000
  16.8340000  45.7120000   9.6010000  18.2360000  44.3280000  11.0820000
  20.6560000  46.3070000   4.3780000  18.4270000  47.0420000   5.1650000
  15.8240000  46.8390000   8.2560000  16.6380000  47.5190000   6.0380000
  15.8490000  45.7290000  10.6390000  19.0390000  43.8470000  11.2470000
  17.2780000  44.3710000  12.0400000  20.4600000  46.9670000   3.1770000
  21.4700000  45.8400000   4.5230000  18.2570000  47.7180000   3.9410000
  16.0600000  45.0860000  11.8110000  15.0350000  46.1980000  10.5020000
  17.4170000  43.9260000  12.8680000  21.4440000  46.9500000   2.1400000
  19.2300000  47.6910000   2.9510000  17.4560000  48.2060000   3.7890000
  15.3940000  45.1090000  12.4870000  21.2330000  47.5930000   0.9680000
  22.2590000  46.4810000   2.2760000  19.0580000  48.3510000   1.6970000
  20.0150000  48.3080000   0.7390000  21.9000000  47.5700000   0.2920000
  18.2550000  48.8320000   1.5310000  19.8770000  48.7530000  -0.0890000
  20.8710000  58.7450000  63.8410000  21.0420000  58.0680000  65.0650000
  21.8470000  58.7400000  62.8370000  19.6270000  59.4740000  63.6090000
  21.8430000  57.5800000  65.2170000  20.0690000  58.0950000  66.0550000
  22.6610000  58.2670000  62.9680000  21.6770000  59.4200000  61.6240000
  18.6430000  59.4790000  64.6280000  19.4570000  60.1540000  62.3960000
  18.8390000  58.8200000  65.8290000  20.2410000  57.4350000  67.3090000
  22.6610000  59.4150000  60.6050000  20.4320000  60.1490000  61.3920000
  17.8290000  59.9460000  64.4830000  18.6430000  60.6260000  62.2650000
  17.8540000  58.8360000  66.8660000  21.0440000  56.9540000  67.4750000
  19.2830000  57.4780000  68.2680000  22.4650000  60.0740000  59.4050000
  23.4750000  58.9470000  60.7500000  20.2620000  60.8260000  60.1680000
  18.0660000  58.1930000  68.0380000  17.0400000  59.3050000  66.7300000
  19.4220000  57.0330000  69.0960000  23.4500000  60.0570000  58.3670000
  21.2350000  60.7980000  59.1780000  19.4610000  61.3130000  60.0160000
  17.3990000  58.2160000  68.7150000  23.2380000  60.7010000  57.1950000
  24.2640000  59.5880000  58.5040000  21.0630000  61.4580000  57.9250000
  22.0200000  61.4150000  56.9660000  23.9050000  60.6770000  56.5190000
  20.2600000  61.9390000  57.7590000  21.8820000  61.8600000  56.1380000
  20.9340000  63.4260000  75.4490000  20.7630000  64.1020000  74.2250000
  19.9580000  63.4310000  76.4530000  22.1780000  62.6970000  75.6810000
  19.9620000  64.5900000  74.0730000  21.7360000  64.0750000  73.2350000
  19.1440000  63.9030000  76.3220000  20.1290000  62.7510000  77.6660000
  23.1620000  62.6920000  74.6620000  22.3480000  62.0160000  76.8940000
  22.9670000  63.3510000  73.4620000  21.5640000  64.7350000  71.9810000
  19.1440000  62.7560000  78.6850000  21.3730000  62.0220000  77.8980000
  23.9760000  62.2240000  74.8070000  23.1620000  61.5440000  77.0250000
  23.9510000  63.3340000  72.4240000  20.7610000  65.2160000  71.8150000
  22.5220000  64.6920000  71.0230000  19.3400000  62.0960000  79.8860000
  18.3300000  63.2230000  78.5400000  21.5430000  61.3450000  79.1220000
  23.7400000  63.9780000  71.2520000  24.7650000  62.8650000  72.5610000
  22.3830000  65.1370000  70.1950000  18.3560000  62.1130000  80.9230000
  20.5700000  61.3720000  80.1120000  22.3440000  60.8570000  79.2740000
  24.4060000  63.9540000  70.5760000  18.5670000  61.4700000  82.0950000
  17.5410000  62.5820000  80.7870000  20.7420000  60.7120000  81.3660000
  19.7850000  60.7550000  82.3240000  17.9000000  61.4930000  82.7710000
  21.5450000  60.2310000  81.5320000  19.9230000  60.3100000  83.1520000
  21.8740000  65.2980000  91.9550000  22.0440000  64.6220000  93.1790000
  22.8500000  65.2930000  90.9510000  20.6300000  66.0280000  91.7230000
  22.8460000  64.1340000  93.3310000  21.0720000  64.6490000  94.1690000
  23.6630000  64.8210000  91.0820000  22.6790000  65.9730000  89.7380000
  19.6450000  66.0320000  92.7420000  20.4590000  66.7080000  90.5100000
  19.8410000  65.3730000  93.9420000  21.2440000  63.9890000  95.4230000
  23.6630000  65.9680000  88.7190000  21.4350000  66.7030000  89.5060000
  18.8310000  66.5000000  92.5970000  19.6460000  67.1800000  90.3790000
  18.8570000  65.3900000  94.9800000  22.0460000  63.5080000  95.5880000
  20.2860000  64.0320000  96.3810000  23.4680000  66.6280000  87.5180000
  24.4780000  65.5010000  88.8640000  21.2650000  67.3790000  88.2820000
  19.0680000  64.7470000  96.1520000  18.0420000  65.8590000  94.8430000
  20.4240000  63.5870000  97.2090000  24.4520000  66.6110000  86.4810000
  22.2370000  67.3520000  87.2920000  20.4630000  67.8670000  88.1300000
  18.4020000  64.7700000  96.8280000  24.2410000  67.2540000  85.3090000
  25.2670000  66.1420000  86.6170000  22.0650000  68.0120000  86.0380000
  23.0230000  67.9690000  85.0800000  24.9070000  67.2310000  84.6320000
  21.2630000  68.4930000  85.8720000  22.8850000  68.4140000  84.2520000
  20.1040000  56.5930000  21.6710000  20.2740000  55.9160000  22.8950000
  21.0790000  56.5880000  20.6670000  18.8600000  57.3220000  21.4390000
  21.0750000  55.4290000  23.0470000  19.3020000  55.9430000  23.8850000
  21.8930000  56.1150000  20.7980000  20.9090000  57.2680000  19.4540000
  17.8750000  57.3270000  22.4580000  18.6890000  58.0020000  20.2260000
  18.0710000  56.6680000  23.6580000  19.4730000  55.2830000  25.1380000
  21.8930000  57.2630000  18.4350000  19.6650000  57.9970000  19.2220000
  17.0610000  57.7950000  22.3130000  17.8750000  58.4750000  20.0950000
  17.0870000  56.6840000  24.6960000  20.2760000  54.8020000  25.3040000
  18.5160000  55.3260000  26.0970000  21.6980000  57.9220000  17.2340000
  22.7080000  56.7950000  18.5800000  19.4940000  58.6740000  17.9980000
  17.2980000  56.0410000  25.8680000  16.2720000  57.1530000  24.5590000
  18.6540000  54.8810000  26.9250000  22.6820000  57.9050000  16.1970000
  20.4670000  58.6460000  17.0080000  18.6930000  59.1610000  17.8460000
  16.6310000  56.0640000  26.5440000  22.4710000  58.5490000  15.0250000
  23.4970000  57.4360000  16.3330000  20.2950000  59.3060000  15.7540000
  21.2530000  59.2630000  14.7950000  23.1370000  58.5260000  14.3480000
  19.4930000  59.7870000  15.5880000  21.1140000  59.7080000  13.9670000
  20.1660000  61.2740000  33.2790000  19.9960000  61.9500000  32.0540000
  19.1900000  61.2790000  34.2820000  21.4100000  60.5450000  33.5110000
  19.1940000  62.4380000  31.9030000  20.9680000  61.9230000  31.0650000
  18.3770000  61.7510000  34.1520000  19.3610000  60.5990000  35.4960000
  22.3950000  60.5400000  32.4920000  21.5810000  59.8650000  34.7240000
  22.1990000  61.1990000  31.2910000  20.7960000  62.5830000  29.8110000
  18.3770000  60.6040000  36.5150000  20.6050000  59.8700000  35.7270000
  23.2090000  60.0720000  32.6360000  22.3940000  59.3920000  34.8550000
  23.1830000  61.1820000  30.2540000  19.9940000  63.0640000  29.6450000
  21.7540000  62.5400000  28.8520000  18.5720000  59.9440000  37.7150000
  17.5620000  61.0710000  36.3700000  20.7750000  59.1930000  36.9520000
  22.9720000  61.8260000  29.0810000  23.9980000  60.7130000  30.3900000
  21.6160000  62.9850000  28.0240000  17.5880000  59.9610000  38.7520000
  19.8030000  59.2200000  37.9410000  21.5770000  58.7050000  37.1040000
  23.6380000  61.8020000  28.4050000  17.7990000  59.3180000  39.9250000
  16.7730000  60.4300000  38.6160000  19.9750000  58.5600000  39.1950000
  19.0170000  58.6030000  40.1540000  17.1330000  59.3410000  40.6010000
  20.7770000  58.0790000  39.3610000  19.1550000  58.1580000  40.9820000
  20.6670000  64.5510000  47.3360000  20.4970000  65.2270000  46.1110000
  19.6920000  64.5560000  48.3390000  21.9110000  63.8210000  47.5670000
  19.6960000  65.7150000  45.9590000  21.4690000  65.2000000  45.1220000
  18.8780000  65.0280000  48.2080000  19.8620000  63.8760000  49.5520000
  22.8960000  63.8170000  46.5480000  22.0820000  63.1410000  48.7810000
  22.7000000  64.4760000  45.3480000  21.2980000  65.8600000  43.8680000
  18.8780000  63.8810000  50.5710000  21.1060000  63.1460000  49.7840000
  23.7100000  63.3490000  46.6930000  22.8960000  62.6690000  48.9110000
  23.6840000  64.4590000  44.3110000  20.4950000  66.3410000  43.7020000
  22.2550000  65.8170000  42.9090000  19.0730000  63.2210000  51.7720000
  18.0630000  64.3480000  50.4270000  21.2770000  62.4700000  51.0090000
  23.4730000  65.1020000  43.1380000  24.4990000  63.9900000  44.4470000
  22.1170000  66.2620000  42.0810000  18.0890000  63.2380000  52.8090000
  20.3040000  62.4970000  51.9980000  22.0780000  61.9820000  51.1600000
  24.1400000  65.0790000  42.4620000  18.3000000  62.5950000  53.9820000
  17.2740000  63.7070000  52.6730000  20.4760000  61.8370000  53.2520000
  19.5180000  61.8800000  54.2110000  17.6340000  62.6180000  54.6580000
  21.2790000  61.3560000  53.4180000  19.6570000  61.4350000  55.0390000
  19.1640000  54.7200000   5.1650000  18.9930000  55.3970000   3.9410000
  18.1880000  54.7250000   6.1690000  20.4080000  53.9910000   5.3970000
  18.1920000  55.8840000   3.7890000  19.9660000  55.3700000   2.9510000
  17.3740000  55.1980000   6.0380000  18.3580000  54.0450000   7.3820000
  21.3920000  53.9860000   4.3780000  20.5780000  53.3110000   6.6100000
  21.1960000  54.6450000   3.1770000  19.7940000  56.0290000   1.6970000
  17.3740000  54.0500000   8.4010000  19.6020000  53.3160000   7.6140000
  22.2060000  53.5180000   4.5230000  21.3920000  52.8380000   6.7410000
  22.1810000  54.6280000   2.1400000  18.9910000  56.5110000   1.5310000
  20.7520000  55.9860000   0.7390000  17.5700000  53.3910000   9.6010000
  16.5600000  54.5180000   8.2560000  19.7730000  52.6390000   8.8380000
  21.9690000  55.2720000   0.9680000  22.9950000  54.1600000   2.2760000
  20.6130000  56.4320000  -0.0890000  16.5850000  53.4080000  10.6390000
  18.8000000  52.6660000   9.8280000  20.5740000  52.1520000   8.9900000
  22.6360000  55.2490000   0.2920000  16.7970000  52.7640000  11.8110000
  15.7710000  53.8770000  10.5020000  18.9720000  52.0070000  11.0820000
  18.0140000  52.0500000  12.0400000  16.1300000  52.7870000  12.4870000
  19.7750000  51.5250000  11.2470000  18.1530000  51.6050000  12.8680000
  21.6070000  66.4230000  63.8410000  21.7780000  65.7470000  65.0650000
  22.5830000  66.4180000  62.8370000  20.3630000  67.1520000  63.6090000
  22.5790000  65.2590000  65.2170000  20.8050000  65.7740000  66.0550000
  23.3970000  65.9460000  62.9680000  22.4130000  67.0980000  61.6240000
  19.3790000  67.1570000  64.6280000  20.1930000  67.8330000  62.3960000
  19.5750000  66.4980000  65.8290000  20.9770000  65.1140000  67.3090000
  23.3970000  67.0930000  60.6050000  21.1690000  67.8270000  61.3920000
  18.5650000  67.6250000  64.4830000  19.3790000  68.3050000  62.2650000
  18.5900000  66.5150000  66.8660000  21.7800000  64.6330000  67.4750000
  20.0190000  65.1570000  68.2680000  23.2010000  67.7530000  59.4050000
  24.2110000  66.6260000  60.7500000  20.9980000  68.5040000  60.1680000
  18.8020000  65.8710000  68.0380000  17.7760000  66.9840000  66.7300000
  20.1580000  64.7120000  69.0960000  24.1860000  67.7360000  58.3670000
  21.9710000  68.4770000  59.1780000  20.1970000  68.9920000  60.0160000
  18.1350000  65.8950000  68.7150000  23.9740000  68.3790000  57.1950000
  25.0000000  67.2670000  58.5040000  21.7990000  69.1370000  57.9250000
  22.7570000  69.0940000  56.9660000  24.6410000  68.3560000  56.5190000
  20.9960000  69.6180000  57.7590000  22.6180000  69.5390000  56.1380000
  21.6700000  71.1040000  75.4490000  21.4990000  71.7810000  74.2250000
  20.6940000  71.1090000  76.4530000  22.9140000  70.3750000  75.6810000
  20.6980000  72.2690000  74.0730000  22.4720000  71.7540000  73.2350000
  19.8800000  71.5820000  76.3220000  20.8650000  70.4290000  77.6660000
  23.8980000  70.3700000  74.6620000  23.0850000  69.6950000  76.8940000
  23.7030000  71.0290000  73.4620000  22.3000000  72.4140000  71.9810000
  19.8800000  70.4340000  78.6850000  22.1090000  69.7000000  77.8980000
  24.7130000  69.9030000  74.8070000  23.8980000  69.2230000  77.0250000
  24.6870000  71.0130000  72.4240000  21.4980000  72.8950000  71.8150000
  23.2580000  72.3710000  71.0230000  20.0760000  69.7750000  79.8860000
  19.0660000  70.9020000  78.5400000  22.2790000  69.0230000  79.1220000
  24.4760000  71.6560000  71.2520000  25.5020000  70.5440000  72.5610000
  23.1190000  72.8160000  70.1950000  19.0920000  69.7920000  80.9230000
  21.3070000  69.0510000  80.1120000  23.0800000  68.5360000  79.2740000
  25.1420000  71.6330000  70.5760000  19.3030000  69.1480000  82.0950000
  18.2770000  70.2610000  80.7870000  21.4780000  68.3910000  81.3660000
  20.5210000  68.4340000  82.3240000  18.6360000  69.1720000  82.7710000
  22.2810000  67.9100000  81.5320000  20.6590000  67.9890000  83.1520000
  22.6100000  72.9770000  91.9550000  22.7800000  72.3000000  93.1790000
  23.5860000  72.9720000  90.9510000  21.3660000  73.7060000  91.7230000
  23.5820000  71.8130000  93.3310000  21.8080000  72.3270000  94.1690000
  24.3990000  72.4990000  91.0820000  23.4150000  73.6520000  89.7380000
  20.3820000  73.7110000  92.7420000  21.1950000  74.3860000  90.5100000
  20.5770000  73.0520000  93.9420000  21.9800000  71.6680000  95.4230000
  24.4000000  73.6470000  88.7190000  22.1710000  74.3810000  89.5060000
  19.5670000  74.1790000  92.5970000  20.3820000  74.8590000  90.3790000
  19.5930000  73.0690000  94.9800000  22.7820000  71.1860000  95.5880000
  21.0220000  71.7110000  96.3810000  24.2040000  74.3060000  87.5180000
  25.2140000  73.1790000  88.8640000  22.0010000  75.0580000  88.2820000
  19.8040000  72.4250000  96.1520000  18.7780000  73.5380000  94.8430000
  21.1600000  71.2660000  97.2090000  25.1880000  74.2890000  86.4810000
  22.9730000  75.0310000  87.2920000  21.1990000  75.5450000  88.1300000
  19.1380000  72.4480000  96.8280000  24.9770000  74.9330000  85.3090000
  26.0030000  73.8210000  86.6170000  22.8010000  75.6900000  86.0380000
  23.7590000  75.6470000  85.0800000  25.6430000  74.9100000  84.6320000
  21.9990000  76.1720000  85.8720000  23.6210000  76.0930000  84.2520000
  19.9000000  62.3990000   5.1650000  19.7290000  63.0750000   3.9410000
  18.9240000  62.4040000   6.1690000  21.1440000  61.6700000   5.3970000
  18.9280000  63.5630000   3.7890000  20.7020000  63.0480000   2.9510000
  18.1100000  62.8760000   6.0380000  19.0940000  61.7240000   7.3820000
  22.1280000  61.6650000   4.3780000  21.3140000  60.9890000   6.6100000
  21.9320000  62.3240000   3.1770000  20.5300000  63.7080000   1.6970000
  18.1100000  61.7290000   8.4010000  20.3390000  60.9950000   7.6140000
  22.9420000  61.1970000   4.5230000  22.1280000  60.5170000   6.7410000
  22.9170000  62.3070000   2.1400000  19.7270000  64.1890000   1.5310000
  21.4880000  63.6650000   0.7390000  18.3060000  61.0690000   9.6010000
  17.2960000  62.1960000   8.2560000  20.5090000  60.3180000   8.8380000
  22.7060000  62.9510000   0.9680000  23.7310000  61.8380000   2.2760000
  21.3490000  64.1100000  -0.0890000  17.3220000  61.0860000  10.6390000
  19.5360000  60.3450000   9.8280000  21.3100000  59.8300000   8.9900000
  23.3720000  62.9270000   0.2920000  17.5330000  60.4430000  11.8110000
  16.5070000  61.5550000  10.5020000  19.7080000  59.6850000  11.0820000
  18.7510000  59.7280000  12.0400000  16.8660000  60.4660000  12.4870000
  20.5110000  59.2040000  11.2470000  18.8890000  59.2830000  12.8680000
  20.9020000  68.9520000  33.2790000  20.7320000  69.6290000  32.0540000
  19.9260000  68.9580000  34.2820000  22.1460000  68.2230000  33.5110000
  19.9310000  70.1170000  31.9030000  21.7040000  69.6020000  31.0650000
  19.1130000  69.4300000  34.1520000  20.0970000  68.2770000  35.4960000
  23.1310000  68.2180000  32.4920000  22.3170000  67.5430000  34.7240000
  22.9350000  68.8780000  31.2910000  21.5330000  70.2620000  29.8110000
  19.1130000  68.2820000  36.5150000  21.3410000  67.5480000  35.7270000
  23.9450000  67.7510000  32.6360000  23.1310000  67.0710000  34.8550000
  23.9190000  68.8610000  30.2540000  20.7300000  70.7430000  29.6450000
  22.4900000  70.2190000  28.8520000  19.3080000  67.6230000  37.7150000
  18.2980000  68.7500000  36.3700000  21.5120000  66.8720000  36.9520000
  23.7080000  69.5040000  29.0810000  24.7340000  68.3920000  30.3900000
  22.3520000  70.6640000  28.0240000  18.3240000  67.6400000  38.7520000
  20.5390000  66.8990000  37.9410000  22.3130000  66.3840000  37.1040000
  24.3750000  69.4810000  28.4050000  18.5350000  66.9960000  39.9250000
  17.5090000  68.1090000  38.6160000  20.7110000  66.2390000  39.1950000
  19.7530000  66.2820000  40.1540000  17.8690000  67.0200000  40.6010000
  21.5130000  65.7580000  39.3610000  19.8920000  65.8370000  40.9820000
  22.3440000  74.1020000  63.8410000  22.5140000  73.4250000  65.0650000
  23.3190000  74.0970000  62.8370000  21.1000000  74.8310000  63.6090000
  23.3150000  72.9380000  65.2170000  21.5410000  73.4520000  66.0550000
  24.1330000  73.6240000  62.9680000  23.1490000  74.7770000  61.6240000
  20.1150000  74.8360000  64.6280000  20.9290000  75.5110000  62.3960000
  20.3110000  74.1770000  65.8290000  21.7130000  72.7930000  67.3090000
  24.1330000  74.7720000  60.6050000  21.9050000  75.5060000  61.3920000
  19.3010000  75.3040000  64.4830000  20.1150000  75.9840000  62.2650000
  19.3270000  74.1940000  66.8660000  22.5160000  72.3110000  67.4750000
  20.7560000  72.8360000  68.2680000  23.9380000  75.4310000  59.4050000
  24.9470000  74.3040000  60.7500000  21.7340000  76.1830000  60.1680000
  19.5380000  73.5500000  68.0380000  18.5120000  74.6620000  66.7300000
  20.8940000  72.3910000  69.0960000  24.9220000  75.4140000  58.3670000
  22.7070000  76.1560000  59.1780000  20.9330000  76.6700000  60.0160000
  18.8710000  73.5730000  68.7150000  24.7110000  76.0580000  57.1950000
  25.7360000  74.9460000  58.5040000  22.5350000  76.8150000  57.9250000
  23.4930000  76.7720000  56.9660000  25.3770000  76.0350000  56.5190000
  21.7320000  77.2970000  57.7590000  23.3540000  77.2170000  56.1380000
  23.3460000  80.6560000  91.9550000  23.5170000  79.9790000  93.1790000
  24.3220000  80.6500000  90.9510000  22.1020000  81.3850000  91.7230000
  24.3180000  79.4910000  93.3310000  22.5440000  80.0060000  94.1690000
  25.1360000  80.1780000  91.0820000  24.1510000  81.3310000  89.7380000
  21.1180000  81.3900000  92.7420000  21.9310000  82.0650000  90.5100000
  21.3130000  80.7300000  93.9420000  22.7160000  79.3460000  95.4230000
  25.1360000  81.3260000  88.7190000  22.9070000  82.0600000  89.5060000
  20.3030000  81.8570000  92.5970000  21.1180000  82.5370000  90.3790000
  20.3290000  80.7470000  94.9800000  23.5180000  78.8650000  95.5880000
  21.7580000  79.3890000  96.3810000  24.9400000  81.9850000  87.5180000
  25.9500000  80.8580000  88.8640000  22.7370000  82.7360000  88.2820000
  20.5400000  80.1040000  96.1520000  19.5140000  81.2160000  94.8430000
  21.8970000  78.9440000  97.2090000  25.9240000  81.9680000  86.4810000
  23.7090000  82.7090000  87.2920000  21.9360000  83.2240000  88.1300000
  19.8740000  80.1270000  96.8280000  25.7130000  82.6120000  85.3090000
  26.7390000  81.4990000  86.6170000  23.5380000  83.3690000  86.0380000
  24.4950000  83.3260000  85.0800000  26.3800000  82.5880000  84.6320000
  22.7350000  83.8500000  85.8720000  24.3570000  83.7710000  84.2520000
  20.8400000  64.2710000  21.6710000  21.0100000  63.5950000  22.8950000
  21.8160000  64.2660000  20.6670000  19.5960000  65.0010000  21.4390000
  21.8110000  63.1070000  23.0470000  20.0380000  63.6220000  23.8850000
  22.6290000  63.7940000  20.7980000  21.6450000  64.9460000  19.4540000
  18.6110000  65.0050000  22.4580000  19.4250000  65.6810000  20.2260000
  18.8070000  64.3460000  23.6580000  20.2100000  62.9620000  25.1380000
  22.6290000  64.9410000  18.4350000  20.4010000  65.6760000  19.2220000
  17.7970000  65.4730000  22.3130000  18.6110000  66.1530000  20.0950000
  17.8230000  64.3630000  24.6960000  21.0120000  62.4810000  25.3040000
  19.2520000  63.0050000  26.0970000  22.4340000  65.6010000  17.2340000
  23.4440000  64.4740000  18.5800000  20.2300000  66.3520000  17.9980000
  18.0340000  63.7200000  25.8680000  17.0080000  64.8320000  24.5590000
  19.3900000  62.5600000  26.9250000  23.4180000  65.5840000  16.1970000
  21.2030000  66.3250000  17.0080000  19.4290000  66.8400000  17.8460000
  17.3670000  63.7430000  26.5440000  23.2070000  66.2270000  15.0250000
  24.2330000  65.1150000  16.3330000  21.0310000  66.9850000  15.7540000
  21.9890000  66.9420000  14.7950000  23.8730000  66.2040000  14.3480000
  20.2290000  67.4660000  15.5880000  21.8500000  67.3870000  13.9670000
  22.4060000  78.7830000  75.4490000  22.2360000  79.4600000  74.2250000
  21.4300000  78.7880000  76.4530000  23.6500000  78.0540000  75.6810000
  21.4340000  79.9470000  74.0730000  23.2080000  79.4320000  73.2350000
  20.6170000  79.2600000  76.3220000  21.6010000  78.1080000  77.6660000
  24.6340000  78.0490000  74.6620000  23.8210000  77.3740000  76.8940000
  24.4390000  78.7080000  73.4620000  23.0360000  80.0920000  71.9810000
  20.6160000  78.1130000  78.6850000  22.8450000  77.3790000  77.8980000
  25.4490000  77.5810000  74.8070000  24.6340000  76.9010000  77.0250000
  25.4230000  78.6910000  72.4240000  22.2340000  80.5730000  71.8150000
  23.9940000  80.0490000  71.0230000  20.8120000  77.4540000  79.8860000
  19.8020000  78.5800000  78.5400000  23.0150000  76.7020000  79.1220000
  25.2120000  79.3350000  71.2520000  26.2380000  78.2220000  72.5610000
  23.8560000  80.4940000  70.1950000  19.8280000  77.4700000  80.9230000
  22.0430000  76.7290000  80.1120000  23.8170000  76.2150000  79.2740000
  25.8780000  79.3120000  70.5760000  20.0390000  76.8270000  82.0950000
  19.0130000  77.9390000  80.7870000  22.2150000  76.0690000  81.3660000
  21.2570000  76.1120000  82.3240000  19.3730000  76.8500000  82.7710000
  23.0170000  75.5880000  81.5320000  21.3950000  75.6670000  83.1520000
  21.1370000  73.3540000  19.2220000  20.9670000  74.0310000  17.9980000
  20.1610000  73.3590000  20.2260000  22.3810000  72.6250000  19.4540000
  20.1650000  74.5180000  17.8460000  21.9390000  74.0040000  17.0080000
  19.3480000  73.8320000  20.0950000  20.3320000  72.6790000  21.4390000
  23.3650000  72.6200000  18.4350000  22.5520000  71.9450000  20.6670000
  23.1700000  73.2790000  17.2340000  21.7670000  74.6630000  15.7540000
  19.3470000  72.6840000  22.4580000  21.5760000  71.9500000  21.6710000
  24.1800000  72.1520000  18.5800000  23.3650000  71.4720000  20.7980000
  24.1540000  73.2620000  16.1970000  20.9650000  75.1450000  15.5880000
  22.7250000  74.6200000  14.7950000  19.5430000  72.0250000  23.6580000
  18.5330000  73.1520000  22.3130000  21.7460000  71.2730000  22.8950000
  23.9430000  73.9060000  15.0250000  24.9690000  72.7940000  16.3330000
  22.5870000  75.0660000  13.9670000  18.5590000  72.0420000  24.6960000
  20.7740000  71.3010000  23.8850000  22.5480000  70.7860000  23.0470000
  24.6090000  73.8830000  14.3480000  18.7700000  71.3980000  25.8680000
  17.7440000  72.5110000  24.5590000  20.9460000  70.6410000  25.1380000
  19.9880000  70.6840000  26.0970000  18.1040000  71.4210000  26.5440000
  21.7480000  70.1590000  25.3040000  20.1260000  70.2390000  26.9250000
  21.6380000  76.6310000  33.2790000  21.4680000  77.3080000  32.0540000
  20.6630000  76.6360000  34.2820000  22.8820000  75.9020000  33.5110000
  20.6670000  77.7950000  31.9030000  22.4400000  77.2800000  31.0650000
  19.8490000  77.1090000  34.1520000  20.8330000  75.9560000  35.4960000
  23.8670000  75.8970000  32.4920000  23.0530000  75.2220000  34.7240000
  23.6710000  76.5560000  31.2910000  22.2690000  77.9400000  29.8110000
  19.8490000  75.9610000  36.5150000  22.0770000  75.2270000  35.7270000
  24.6810000  75.4290000  32.6360000  23.8670000  74.7490000  34.8550000
  24.6550000  76.5390000  30.2540000  21.4660000  78.4210000  29.6450000
  23.2260000  77.8970000  28.8520000  20.0440000  75.3020000  37.7150000
  19.0340000  76.4290000  36.3700000  22.2480000  74.5500000  36.9520000
  24.4440000  77.1830000  29.0810000  25.4700000  76.0700000  30.3900000
  23.0880000  78.3420000  28.0240000  19.0600000  75.3190000  38.7520000
  21.2750000  74.5770000  37.9410000  23.0490000  74.0630000  37.1040000
  25.1110000  77.1600000  28.4050000  19.2710000  74.6750000  39.9250000
  18.2450000  75.7870000  38.6160000  21.4470000  73.9170000  39.1950000
  20.4890000  73.9610000  40.1540000  18.6050000  74.6980000  40.6010000
  22.2490000  73.4360000  39.3610000  20.6280000  73.5150000  40.9820000
  22.1400000  79.9080000  47.3360000  21.9690000  80.5850000  46.1110000
  21.1640000  79.9130000  48.3390000  23.3840000  79.1790000  47.5670000
  21.1680000  81.0720000  45.9590000  22.9420000  80.5570000  45.1220000
  20.3500000  80.3850000  48.2080000  21.3340000  79.2330000  49.5520000
  24.3680000  79.1740000  46.5480000  23.5540000  78.4990000  48.7810000
  24.1720000  79.8330000  45.3480000  22.7700000  81.2170000  43.8680000
  20.3500000  79.2380000  50.5710000  22.5780000  78.5040000  49.7840000
  25.1820000  78.7060000  46.6930000  24.3680000  78.0260000  48.9110000
  25.1570000  79.8160000  44.3110000  21.9670000  81.6980000  43.7020000
  23.7280000  81.1740000  42.9090000  20.5460000  78.5780000  51.7720000
  19.5360000  79.7050000  50.4270000  22.7490000  77.8270000  51.0090000
  24.9450000  80.4600000  43.1380000  25.9710000  79.3470000  44.4470000
  23.5890000  81.6190000  42.0810000  19.5610000  78.5950000  52.8090000
  21.7760000  77.8540000  51.9980000  23.5500000  77.3390000  51.1600000
  25.6120000  80.4360000  42.4620000  19.7730000  77.9520000  53.9820000
  18.7470000  79.0640000  52.6730000  21.9480000  77.1940000  53.2520000
  20.9900000  77.2370000  54.2110000  19.1060000  77.9750000  54.6580000
  22.7510000  76.7130000  53.4180000  21.1290000  76.7920000  55.0390000
  21.0750000  68.6730000   7.6140000  21.2450000  67.9960000   8.8380000
  22.0500000  68.6680000   6.6100000  19.8310000  69.4020000   7.3820000
  22.0460000  67.5090000   8.9900000  20.2730000  68.0240000   9.8280000
  22.8640000  68.1960000   6.7410000  21.8800000  69.3480000   5.3970000
  18.8460000  69.4070000   8.4010000  19.6600000  70.0820000   6.1690000
  19.0420000  68.7480000   9.6010000  20.4440000  67.3640000  11.0820000
  22.8640000  69.3430000   4.3780000  20.6360000  70.0770000   5.1650000
  18.0320000  69.8750000   8.2560000  18.8460000  70.5550000   6.0380000
  18.0580000  68.7650000  10.6390000  21.2470000  66.8830000  11.2470000
  19.4870000  67.4070000  12.0400000  22.6690000  70.0020000   3.1770000
  23.6790000  68.8760000   4.5230000  20.4650000  70.7540000   3.9410000
  18.2690000  68.1210000  11.8110000  17.2430000  69.2340000  10.5020000
  19.6250000  66.9620000  12.8680000  23.6530000  69.9860000   2.1400000
  21.4380000  70.7270000   2.9510000  19.6640000  71.2420000   3.7890000
  17.6020000  68.1450000  12.4870000  23.4420000  70.6290000   0.9680000
  24.4680000  69.5170000   2.2760000  21.2660000  71.3870000   1.6970000
  22.2240000  71.3440000   0.7390000  24.1080000  70.6060000   0.2920000
  20.4630000  71.8680000   1.5310000  22.0850000  71.7890000  -0.0890000
  23.1420000  86.4610000  75.4490000  22.9720000  87.1380000  74.2250000
  22.1660000  86.4670000  76.4530000  24.3860000  85.7320000  75.6810000
  22.1700000  87.6260000  74.0730000  23.9440000  87.1110000  73.2350000
  21.3530000  86.9390000  76.3220000  22.3370000  85.7860000  77.6660000
  25.3710000  85.7270000  74.6620000  24.5570000  85.0520000  76.8940000
  25.1750000  86.3870000  73.4620000  23.7720000  87.7710000  71.9810000
  21.3530000  85.7910000  78.6850000  23.5810000  85.0570000  77.8980000
  26.1850000  85.2600000  74.8070000  25.3700000  84.5800000  77.0250000
  26.1590000  86.3700000  72.4240000  22.9700000  88.2520000  71.8150000
  24.7300000  87.7280000  71.0230000  21.5480000  85.1320000  79.8860000
  20.5380000  86.2590000  78.5400000  23.7510000  84.3810000  79.1220000
  25.9480000  87.0130000  71.2520000  26.9740000  85.9010000  72.5610000
  24.5920000  88.1730000  70.1950000  20.5640000  85.1490000  80.9230000
  22.7790000  84.4080000  80.1120000  24.5530000  83.8930000  79.2740000
  26.6140000  86.9900000  70.5760000  20.7750000  84.5050000  82.0950000
  19.7490000  85.6180000  80.7870000  22.9510000  83.7480000  81.3660000
  21.9930000  83.7910000  82.3240000  20.1090000  84.5290000  82.7710000
  23.7530000  83.2670000  81.5320000  22.1310000  83.3460000  83.1520000
  23.6430000  89.7380000  89.5060000  23.4730000  90.4150000  88.2820000
  22.6680000  89.7430000  90.5100000  24.8870000  89.0090000  89.7380000
  22.6720000  90.9030000  88.1300000  24.4450000  90.3880000  87.2920000
  21.8540000  90.2160000  90.3790000  22.8380000  89.0630000  91.7230000
  25.8720000  89.0040000  88.7190000  25.0580000  88.3290000  90.9510000
  25.6760000  89.6630000  87.5180000  24.2740000  91.0480000  86.0380000
  21.8540000  89.0680000  92.7420000  24.0820000  88.3340000  91.9550000
  26.6860000  88.5370000  88.8640000  25.8720000  87.8570000  91.0820000
  26.6600000  89.6470000  86.4810000  23.4710000  91.5290000  85.8720000
  25.2310000  91.0050000  85.0800000  22.0490000  88.4090000  93.9420000
  21.0390000  89.5360000  92.5970000  24.2530000  87.6570000  93.1790000
  26.4490000  90.2900000  85.3090000  27.4750000  89.1780000  86.6170000
  25.0930000  91.4500000  84.2520000  21.0650000  88.4260000  94.9800000
  23.2800000  87.6850000  94.1690000  25.0540000  87.1700000  93.3310000
  27.1160000  90.2670000  84.6320000  21.2760000  87.7820000  96.1520000
  20.2510000  88.8950000  94.8430000  23.4520000  87.0250000  95.4230000
  22.4940000  87.0680000  96.3810000  20.6100000  87.8060000  96.8280000
  24.2550000  86.5440000  95.5880000  22.6330000  86.6230000  97.2090000
  22.3120000  79.6290000  21.6710000  22.4830000  78.9520000  22.8950000
  23.2880000  79.6230000  20.6670000  21.0680000  80.3580000  21.4390000
  23.2840000  78.4640000  23.0470000  21.5100000  78.9790000  23.8850000
  24.1010000  79.1510000  20.7980000  23.1170000  80.3040000  19.4540000
  20.0840000  80.3630000  22.4580000  20.8970000  81.0380000  20.2260000
  20.2790000  79.7030000  23.6580000  21.6820000  78.3190000  25.1380000
  24.1020000  80.2990000  18.4350000  21.8730000  81.0330000  19.2220000
  19.2690000  80.8300000  22.3130000  20.0840000  81.5100000  20.0950000
  19.2950000  79.7200000  24.6960000  22.4840000  77.8380000  25.3040000
  20.7240000  78.3620000  26.0970000  23.9060000  80.9580000  17.2340000
  24.9160000  79.8310000  18.5800000  21.7030000  81.7090000  17.9980000
  19.5060000  79.0770000  25.8680000  18.4800000  80.1890000  24.5590000
  20.8620000  77.9170000  26.9250000  24.8900000  80.9410000  16.1970000
  22.6750000  81.6820000  17.0080000  20.9020000  82.1970000  17.8460000
  18.8400000  79.1000000  26.5440000  24.6790000  81.5850000  15.0250000
  25.7050000  80.4720000  16.3330000  22.5030000  82.3420000  15.7540000
  23.4610000  82.2990000  14.7950000  25.3460000  81.5610000  14.3480000
  21.7010000  82.8230000  15.5880000  23.3230000  82.7440000  13.9670000
  23.8160000  89.4590000  63.8410000  23.9860000  88.7820000  65.0650000
  24.7920000  89.4540000  62.8370000  22.5720000  90.1880000  63.6090000
  24.7870000  88.2950000  65.2170000  23.0140000  88.8100000  66.0550000
  25.6050000  88.9810000  62.9680000  24.6210000  90.1340000  61.6240000
  21.5870000  90.1930000  64.6280000  22.4010000  90.8680000  62.3960000
  21.7830000  89.5340000  65.8290000  23.1860000  88.1500000  67.3090000
  25.6050000  90.1290000  60.6050000  23.3770000  90.8630000  61.3920000
  20.7730000  90.6610000  64.4830000  21.5880000  91.3410000  62.2650000
  20.7990000  89.5510000  66.8660000  23.9880000  87.6690000  67.4750000
  22.2280000  88.1930000  68.2680000  25.4100000  90.7880000  59.4050000
  26.4200000  89.6620000  60.7500000  23.2070000  91.5400000  60.1680000
  21.0100000  88.9070000  68.0380000  19.9840000  90.0200000  66.7300000
  22.3660000  87.7480000  69.0960000  26.3940000  90.7720000  58.3670000
  24.1790000  91.5130000  59.1780000  22.4050000  92.0270000  60.0160000
  20.3430000  88.9300000  68.7150000  26.1830000  91.4150000  57.1950000
  27.2090000  90.3030000  58.5040000  24.0070000  92.1730000  57.9250000
  24.9650000  92.1300000  56.9660000  26.8490000  91.3920000  56.5190000
  23.2050000  92.6540000  57.7590000  24.8270000  92.5750000  56.1380000
  24.3170000  92.7360000  77.8980000  24.4880000  92.0590000  79.1220000
  25.2930000  92.7310000  76.8940000  23.0730000  93.4650000  77.6660000
  25.2890000  91.5720000  79.2740000  23.5150000  92.0860000  80.1120000
  26.1070000  92.2580000  77.0250000  25.1220000  93.4110000  75.6810000
  22.0890000  93.4700000  78.6850000  22.9020000  94.1450000  76.4530000
  22.2840000  92.8110000  79.8860000  23.6870000  91.4270000  81.3660000
  26.1070000  93.4060000  74.6620000  23.8780000  94.1400000  75.4490000
  21.2740000  93.9380000  78.5400000  22.0890000  94.6180000  76.3220000
  21.3000000  92.8280000  80.9230000  24.4890000  90.9450000  81.5320000
  22.7290000  91.4700000  82.3240000  25.9110000  94.0650000  73.4620000
  26.9210000  92.9380000  74.8070000  23.7080000  94.8170000  74.2250000
  21.5110000  92.1840000  82.0950000  20.4850000  93.2960000  80.7870000
  22.8680000  91.0250000  83.1520000  26.8950000  94.0480000  72.4240000
  24.6800000  94.7900000  73.2350000  22.9070000  95.3040000  74.0730000
  20.8450000  92.2070000  82.7710000  26.6840000  94.6920000  71.2520000
  27.7100000  93.5800000  72.5610000  24.5090000  95.4490000  71.9810000
  25.4660000  95.4060000  71.0230000  27.3510000  94.6690000  70.5760000
  23.7060000  95.9310000  71.8150000  25.3280000  95.8510000  70.1950000
  22.8130000  82.9050000  35.7270000  22.9840000  82.2290000  36.9520000
  23.7890000  82.9000000  34.7240000  21.5690000  83.6350000  35.4960000
  23.7850000  81.7410000  37.1040000  22.0110000  82.2560000  37.9410000
  24.6030000  82.4280000  34.8550000  23.6190000  83.5800000  33.5110000
  20.5850000  83.6400000  36.5150000  21.3990000  84.3150000  34.2820000
  20.7810000  82.9800000  37.7150000  22.1830000  81.5960000  39.1950000
  24.6030000  83.5750000  32.4920000  22.3740000  84.3100000  33.2790000
  19.7710000  84.1070000  36.3700000  20.5850000  84.7870000  34.1520000
  19.7960000  82.9970000  38.7520000  22.9860000  81.1150000  39.3610000
  21.2250000  81.6390000  40.1540000  24.4070000  84.2350000  31.2910000
  25.4170000  83.1080000  32.6360000  22.2040000  84.9860000  32.0540000
  20.0070000  82.3540000  39.9250000  18.9820000  83.4660000  38.6160000
  21.3640000  81.1940000  40.9820000  25.3910000  84.2180000  30.2540000
  23.1770000  84.9590000  31.0650000  21.4030000  85.4740000  31.9030000
  19.3410000  82.3770000  40.6010000  25.1800000  84.8610000  29.0810000
  26.2060000  83.7490000  30.3900000  23.0050000  85.6190000  29.8110000
  23.9620000  85.5760000  28.8520000  25.8470000  84.8380000  28.4050000
  22.2020000  86.1000000  29.6450000  23.8240000  86.0210000  28.0240000
  21.8110000  76.3520000   7.6140000  21.9810000  75.6750000   8.8380000
  22.7870000  76.3470000   6.6100000  20.5670000  77.0810000   7.3820000
  22.7820000  75.1880000   8.9900000  21.0090000  75.7020000   9.8280000
  23.6000000  75.8740000   6.7410000  22.6160000  77.0270000   5.3970000
  19.5820000  77.0860000   8.4010000  20.3960000  77.7610000   6.1690000
  19.7780000  76.4270000   9.6010000  21.1800000  75.0420000  11.0820000
  23.6000000  77.0220000   4.3780000  21.3720000  77.7560000   5.1650000
  18.7680000  77.5540000   8.2560000  19.5820000  78.2340000   6.0380000
  18.7940000  76.4430000  10.6390000  21.9830000  74.5610000  11.2470000
  20.2230000  75.0850000  12.0400000  23.4050000  77.6810000   3.1770000
  24.4150000  76.5540000   4.5230000  21.2010000  78.4330000   3.9410000
  19.0050000  75.8000000  11.8110000  17.9790000  76.9120000  10.5020000
  20.3610000  74.6400000  12.8680000  24.3890000  77.6640000   2.1400000
  22.1740000  78.4050000   2.9510000  20.4000000  78.9200000   3.7890000
  18.3380000  75.8230000  12.4870000  24.1780000  78.3080000   0.9680000
  25.2040000  77.1950000   2.2760000  22.0020000  79.0650000   1.6970000
  22.9600000  79.0220000   0.7390000  24.8440000  78.2850000   0.2920000
  21.2000000  79.5460000   1.5310000  22.8210000  79.4670000  -0.0890000
  18.2570000  11.8710000   4.9780000  18.1010000  11.9910000   3.5870000
  17.2760000  11.3140000   5.8090000  19.4880000  12.3590000   5.5830000
  17.3000000  11.6730000   3.1860000  19.0770000  12.5560000   2.7770000
  16.4630000  10.9970000   5.4360000  17.4560000  11.2120000   7.1960000
  20.4800000  12.9310000   4.7500000  19.6680000  12.2570000   6.9700000
  20.3020000  13.0320000   3.3760000  18.9130000  12.6810000   1.3540000
  16.4640000  10.6410000   8.0280000  18.6870000  11.7000000   7.8010000
  21.2860000  13.2520000   5.1400000  20.4810000  12.5750000   7.3430000
  21.2980000  13.6180000   2.5130000  18.1130000  12.3750000   0.9420000
  19.8920000  13.2320000   0.5920000  16.6420000  10.5390000   9.4030000
  15.6580000  10.3190000   7.6390000  18.8430000  11.5810000   9.1920000
  21.1000000  13.7150000   1.1770000  22.1070000  13.9420000   2.8880000
  19.7710000  13.2970000  -0.3480000  15.6460000   9.9540000  10.2660000
  17.8670000  11.0150000  10.0020000  19.6440000  11.8980000   9.5930000
  21.7680000  14.1070000   0.6280000  15.8440000   9.8560000  11.6020000
  14.8370000   9.6300000   9.8910000  18.0310000  10.8900000  11.4250000
  17.0520000  10.3390000  12.1860000  15.1760000   9.4650000  12.1510000
  18.8310000  11.1970000  11.8360000  17.1730000  10.2740000  13.1270000
  22.6740000  57.9430000   4.9780000  22.5180000  58.0620000   3.5870000
  21.6930000  57.3860000   5.8090000  23.9050000  58.4310000   5.5830000
  21.7160000  57.7450000   3.1860000  23.4940000  58.6280000   2.7770000
  20.8800000  57.0680000   5.4360000  21.8720000  57.2840000   7.1960000
  24.8970000  59.0030000   4.7500000  24.0840000  58.3290000   6.9700000
  24.7180000  59.1040000   3.3760000  23.3300000  58.7530000   1.3540000
  20.8800000  56.7120000   8.0280000  23.1030000  57.7720000   7.8010000
  25.7020000  59.3240000   5.1400000  24.8980000  58.6460000   7.3430000
  25.7140000  59.6890000   2.5130000  22.5300000  58.4470000   0.9420000
  24.3090000  59.3040000   0.5920000  21.0590000  56.6110000   9.4030000
  20.0750000  56.3910000   7.6390000  23.2600000  57.6520000   9.1920000
  25.5160000  59.7870000   1.1770000  26.5240000  60.0130000   2.8880000
  24.1880000  59.3690000  -0.3480000  20.0630000  56.0250000  10.2660000
  22.2840000  57.0870000  10.0020000  24.0610000  57.9700000   9.5930000
  26.1850000  60.1780000   0.6280000  20.2610000  55.9280000  11.6020000
  19.2530000  55.7010000   9.8910000  22.4480000  56.9620000  11.4250000
  21.4690000  56.4110000  12.1860000  19.5930000  55.5360000  12.1510000
  23.2470000  57.2680000  11.8360000  21.5900000  56.3460000  13.1270000
  24.1460000  73.3000000   4.9780000  23.9900000  73.4200000   3.5870000
  23.1650000  72.7430000   5.8090000  25.3770000  73.7880000   5.5830000
  23.1890000  73.1020000   3.1860000  24.9660000  73.9850000   2.7770000
  22.3520000  72.4260000   5.4360000  23.3450000  72.6410000   7.1960000
  26.3690000  74.3600000   4.7500000  25.5570000  73.6860000   6.9700000
  26.1900000  74.4610000   3.3760000  24.8020000  74.1100000   1.3540000
  22.3530000  72.0690000   8.0280000  24.5750000  73.1290000   7.8010000
  27.1740000  74.6810000   5.1400000  26.3700000  74.0030000   7.3430000
  27.1860000  75.0470000   2.5130000  24.0020000  73.8040000   0.9420000
  25.7810000  74.6610000   0.5920000  22.5310000  71.9680000   9.4030000
  21.5470000  71.7480000   7.6390000  24.7320000  73.0090000   9.1920000
  26.9890000  75.1440000   1.1770000  27.9960000  75.3710000   2.8880000
  25.6600000  74.7260000  -0.3480000  21.5350000  71.3820000  10.2660000
  23.7560000  72.4440000  10.0020000  25.5330000  73.3270000   9.5930000
  27.6570000  75.5360000   0.6280000  21.7330000  71.2850000  11.6020000
  20.7260000  71.0580000   9.8910000  23.9200000  72.3190000  11.4250000
  22.9410000  71.7680000  12.1860000  21.0650000  70.8930000  12.1510000
  24.7200000  72.6250000  11.8360000  23.0620000  71.7030000  13.1270000
  25.1490000  79.8540000  33.0920000  24.9930000  79.9730000  31.7000000
  24.1680000  79.2970000  33.9230000  26.3800000  80.3420000  33.6960000
  24.1910000  79.6560000  31.3000000  25.9680000  80.5390000  30.8900000
  23.3540000  78.9790000  33.5500000  24.3470000  79.1950000  35.3100000
  27.3720000  80.9130000  32.8640000  26.5590000  80.2400000  35.0840000
  27.1930000  81.0140000  31.4890000  25.8050000  80.6640000  29.4680000
  23.3550000  78.6230000  36.1420000  25.5780000  79.6830000  35.9140000
  28.1770000  81.2350000  33.2530000  27.3730000  80.5570000  35.4560000
  28.1890000  81.6000000  30.6260000  25.0050000  80.3570000  29.0560000
  26.7840000  81.2150000  28.7060000  23.5340000  78.5220000  37.5170000
  22.5500000  78.3020000  35.7530000  25.7340000  79.5630000  37.3060000
  27.9910000  81.6980000  29.2910000  28.9990000  81.9240000  31.0020000
  26.6620000  81.2800000  27.7660000  22.5380000  77.9360000  38.3800000
  24.7580000  78.9980000  38.1160000  26.5360000  79.8810000  37.7070000
  28.6590000  82.0890000  28.7410000  22.7360000  77.8390000  39.7150000
  21.7280000  77.6120000  38.0050000  24.9220000  78.8730000  39.5380000
  23.9430000  78.3210000  40.3000000  22.0670000  77.4470000  40.2650000
  25.7220000  79.1790000  39.9500000  24.0640000  78.2570000  41.2410000
  18.9530000  10.5750000  35.9140000  19.1090000  10.4560000  37.3060000
  19.9340000  11.1320000  35.0840000  17.7220000  10.0870000  35.3100000
  19.9110000  10.7730000  37.7070000  18.1330000   9.8900000  38.1160000
  20.7480000  11.4500000  35.4560000  19.7550000  11.2340000  33.6960000
  16.7300000   9.5160000  36.1420000  17.5430000  10.1890000  33.9230000
  16.9090000   9.4150000  37.5170000  18.2970000   9.7650000  39.5380000
  20.7470000  11.8060000  32.8640000  18.5240000  10.7460000  33.0920000
  15.9250000   9.1950000  35.7530000  16.7290000   9.8720000  33.5500000
  15.9130000   8.8290000  38.3800000  19.0970000  10.0720000  39.9500000
  17.3180000   9.2140000  40.3000000  20.5680000  11.9070000  31.4890000
  21.5520000  12.1270000  33.2530000  18.3670000  10.8660000  31.7000000
  16.1110000   8.7320000  39.7150000  15.1030000   8.5050000  38.0050000
  17.4390000   9.1490000  41.2410000  21.5640000  12.4930000  30.6260000
  19.3430000  11.4310000  30.8900000  17.5660000  10.5480000  31.3000000
  15.4420000   8.3400000  40.2650000  21.3660000  12.5900000  29.2910000
  22.3740000  12.8170000  31.0020000  19.1800000  11.5560000  29.4680000
  20.1590000  12.1080000  28.7060000  22.0340000  12.9820000  28.7410000
  18.3800000  11.2500000  29.0560000  20.0370000  12.1720000  27.7660000
  17.5210000   4.1930000   4.9780000  17.3650000   4.3120000   3.5870000
  16.5400000   3.6360000   5.8090000  18.7520000   4.6810000   5.5830000
  16.5640000   3.9950000   3.1860000  18.3410000   4.8780000   2.7770000
  15.7270000   3.3180000   5.4360000  16.7200000   3.5340000   7.1960000
  19.7440000   5.2520000   4.7500000  18.9320000   4.5790000   6.9700000
  19.5650000   5.3530000   3.3760000  18.1770000   5.0030000   1.3540000
  15.7280000   2.9620000   8.0280000  17.9500000   4.0220000   7.8010000
  20.5490000   5.5730000   5.1400000  19.7450000   4.8960000   7.3430000
  20.5610000   5.9390000   2.5130000  17.3770000   4.6960000   0.9420000
  19.1560000   5.5540000   0.5920000  15.9060000   2.8610000   9.4030000
  14.9220000   2.6410000   7.6390000  18.1070000   3.9020000   9.1920000
  20.3630000   6.0370000   1.1770000  21.3710000   6.2630000   2.8880000
  19.0350000   5.6190000  -0.3480000  14.9100000   2.2750000  10.2660000
  17.1310000   3.3370000  10.0020000  18.9080000   4.2200000   9.5930000
  21.0320000   6.4280000   0.6280000  15.1080000   2.1780000  11.6020000
  14.1010000   1.9510000   9.8910000  17.2950000   3.2120000  11.4250000
  16.3160000   2.6600000  12.1860000  14.4400000   1.7860000  12.1510000
  18.0950000   3.5180000  11.8360000  16.4370000   2.5960000  13.1270000
  19.9550000  17.1290000  64.0280000  20.1120000  17.0090000  65.4200000
  20.9370000  17.6860000  63.1970000  18.7250000  16.6410000  63.4240000
  20.9130000  17.3270000  65.8200000  19.1360000  16.4440000  66.2290000
  21.7500000  18.0030000  63.5700000  20.7570000  17.7880000  61.8100000
  17.7330000  16.0690000  64.2560000  18.5450000  16.7430000  62.0360000
  17.9110000  15.9680000  65.6300000  19.3000000  16.3190000  67.6520000
  21.7490000  18.3600000  60.9780000  19.5260000  17.3000000  61.2050000
  16.9270000  15.7480000  63.8660000  17.7320000  16.4260000  61.6640000
  16.9150000  15.3820000  66.4940000  20.1000000  16.6250000  68.0640000
  18.3210000  15.7680000  68.4140000  21.5700000  18.4610000  59.6030000
  22.5540000  18.6810000  61.3670000  19.3700000  17.4200000  59.8140000
  17.1130000  15.2850000  67.8290000  16.1060000  15.0580000  66.1180000
  18.4420000  15.7030000  69.3540000  22.5660000  19.0470000  58.7400000
  20.3460000  17.9850000  59.0040000  18.5690000  17.1020000  59.4130000
  16.4450000  14.8930000  68.3790000  22.3680000  19.1440000  57.4040000
  23.3760000  19.3710000  59.1150000  20.1820000  18.1100000  57.5820000
  21.1610000  18.6610000  56.8200000  23.0370000  19.5360000  56.8550000
  19.3820000  17.8040000  57.1700000  21.0400000  18.7260000  55.8790000
  20.4570000  20.4060000  78.0850000  20.6130000  20.2860000  79.4760000
  21.4380000  20.9630000  77.2540000  19.2260000  19.9180000  77.4800000
  21.4140000  20.6040000  79.8770000  19.6370000  19.7210000  80.2860000
  22.2510000  21.2800000  77.6270000  21.2580000  21.0650000  75.8670000
  18.2340000  19.3460000  78.3130000  19.0470000  20.0200000  76.0930000
  18.4130000  19.2450000  79.6870000  19.8010000  19.5960000  81.7090000
  22.2500000  21.6370000  75.0350000  20.0280000  20.5770000  75.2620000
  17.4290000  19.0250000  77.9230000  18.2330000  19.7020000  75.7200000
  17.4170000  18.6590000  80.5500000  20.6010000  19.9020000  82.1210000
  18.8220000  19.0450000  82.4710000  22.0720000  21.7380000  73.6600000
  23.0560000  21.9580000  75.4240000  19.8710000  20.6960000  73.8710000
  17.6150000  18.5620000  81.8860000  16.6070000  18.3350000  80.1750000
  18.9430000  18.9800000  83.4110000  23.0680000  22.3230000  72.7970000
  20.8470000  21.2620000  73.0610000  19.0700000  20.3790000  73.4700000
  16.9460000  18.1700000  82.4350000  22.8700000  22.4210000  71.4610000
  23.8780000  22.6470000  73.1720000  20.6830000  21.3870000  71.6380000
  21.6620000  21.9380000  70.8770000  23.5380000  22.8120000  70.9120000
  19.8840000  21.0810000  71.2270000  21.5410000  22.0030000  69.9360000
  19.0250000  14.0230000  47.1490000  18.8690000  14.1430000  45.7570000
  18.0440000  13.4660000  47.9790000  20.2560000  14.5110000  47.7530000
  18.0670000  13.8250000  45.3560000  19.8450000  14.7080000  44.9470000
  17.2300000  13.1490000  47.6070000  18.2230000  13.3640000  49.3670000
  21.2480000  15.0830000  46.9210000  20.4350000  14.4090000  49.1400000
  21.0690000  15.1840000  45.5460000  19.6810000  14.8330000  43.5250000
  17.2310000  12.7920000  50.1990000  19.4540000  13.8520000  49.9710000
  22.0530000  15.4040000  47.3100000  21.2490000  14.7270000  49.5130000
  22.0650000  15.7700000  44.6830000  18.8810000  14.5270000  43.1130000
  20.6600000  15.3840000  42.7630000  17.4100000  12.6910000  51.5740000
  16.4260000  12.4710000  49.8100000  19.6110000  13.7330000  51.3630000
  21.8670000  15.8670000  43.3480000  22.8750000  16.0940000  45.0580000
  20.5390000  15.4490000  41.8220000  16.4140000  12.1060000  52.4370000
  18.6350000  13.1670000  52.1730000  20.4120000  14.0500000  51.7630000
  22.5360000  16.2590000  42.7980000  16.6120000  12.0080000  53.7720000
  15.6040000  11.7820000  52.0610000  18.7980000  13.0420000  53.5950000
  17.8200000  12.4910000  54.3570000  15.9440000  11.6170000  54.3220000
  19.5980000  13.3480000  54.0070000  17.9410000  12.4260000  55.2970000
  18.7590000  15.1480000  19.0350000  18.6020000  15.2680000  17.6430000
  17.7780000  14.5910000  19.8660000  19.9900000  15.6360000  19.6390000
  17.8010000  14.9500000  17.2430000  19.5780000  15.8330000  16.8340000
  16.9640000  14.2740000  19.4930000  17.9570000  14.4890000  21.2530000
  20.9810000  16.2080000  18.8070000  20.1690000  15.5340000  21.0270000
  20.8030000  16.3090000  17.4320000  19.4140000  15.9580000  15.4110000
  16.9650000  13.9170000  22.0850000  19.1880000  14.9770000  21.8580000
  21.7870000  16.5290000  19.1970000  20.9820000  15.8510000  21.3990000
  21.7990000  16.8950000  16.5690000  18.6150000  15.6520000  14.9990000
  20.3930000  16.5090000  14.6490000  17.1440000  13.8160000  23.4600000
  16.1600000  13.5960000  21.6960000  19.3440000  14.8580000  23.2490000
  21.6010000  16.9920000  15.2340000  22.6090000  17.2190000  16.9450000
  20.2720000  16.5740000  13.7090000  16.1480000  13.2300000  24.3230000
  18.3680000  14.2920000  24.0590000  20.1460000  15.1750000  23.6500000
  22.2690000  17.3840000  14.6840000  16.3460000  13.1330000  25.6590000
  15.3380000  12.9060000  23.9480000  18.5320000  14.1670000  25.4810000
  17.5530000  13.6160000  26.2430000  15.6770000  12.7420000  26.2080000
  19.3320000  14.4730000  25.8930000  17.6740000  13.5510000  27.1840000
  19.2600000  18.4250000  33.0920000  19.1040000  18.5450000  31.7000000
  18.2790000  17.8680000  33.9230000  20.4910000  18.9130000  33.6960000
  18.3020000  18.2270000  31.3000000  20.0790000  19.1100000  30.8900000
  17.4650000  17.5510000  33.5500000  18.4580000  17.7660000  35.3100000
  21.4830000  19.4850000  32.8640000  20.6700000  18.8110000  35.0840000
  21.3040000  19.5860000  31.4890000  19.9160000  19.2350000  29.4680000
  17.4660000  17.1940000  36.1420000  19.6890000  18.2540000  35.9140000
  22.2880000  19.8060000  33.2530000  21.4840000  19.1280000  35.4560000
  22.3000000  20.1720000  30.6260000  19.1160000  18.9290000  29.0560000
  20.8950000  19.7860000  28.7060000  17.6450000  17.0930000  37.5170000
  16.6610000  16.8730000  35.7530000  19.8450000  18.1340000  37.3060000
  22.1020000  20.2690000  29.2910000  23.1100000  20.4960000  31.0020000
  20.7730000  19.8510000  27.7660000  16.6490000  16.5070000  38.3800000
  18.8700000  17.5690000  38.1160000  20.6470000  18.4520000  37.7070000
  22.7710000  20.6600000  28.7410000  16.8470000  16.4100000  39.7150000
  15.8390000  16.1830000  38.0050000  19.0330000  17.4440000  39.5380000
  18.0540000  16.8930000  40.3000000  16.1790000  16.0180000  40.2650000
  19.8330000  17.7500000  39.9500000  18.1760000  16.8280000  41.2410000
  19.7610000  21.7020000  47.1490000  19.6050000  21.8210000  45.7570000
  18.7800000  21.1450000  47.9790000  20.9920000  22.1900000  47.7530000
  18.8030000  21.5040000  45.3560000  20.5810000  22.3870000  44.9470000
  17.9670000  20.8270000  47.6070000  18.9590000  21.0430000  49.3670000
  21.9840000  22.7610000  46.9210000  21.1710000  22.0880000  49.1400000
  21.8050000  22.8630000  45.5460000  20.4170000  22.5120000  43.5250000
  17.9680000  20.4710000  50.1990000  20.1900000  21.5310000  49.9710000
  22.7890000  23.0830000  47.3100000  21.9850000  22.4050000  49.5130000
  22.8010000  23.4480000  44.6830000  19.6170000  22.2050000  43.1130000
  21.3960000  23.0630000  42.7630000  18.1460000  20.3700000  51.5740000
  17.1620000  20.1500000  49.8100000  20.3470000  21.4110000  51.3630000
  22.6030000  23.5460000  43.3480000  23.6110000  23.7720000  45.0580000
  21.2750000  23.1280000  41.8220000  17.1500000  19.7840000  52.4370000
  19.3710000  20.8460000  52.1730000  21.1480000  21.7290000  51.7630000
  23.2720000  23.9370000  42.7980000  17.3480000  19.6870000  53.7720000
  16.3400000  19.4600000  52.0610000  19.5350000  20.7210000  53.5950000
  18.5560000  20.1700000  54.3570000  16.6800000  19.2950000  54.3220000
  20.3340000  21.0270000  54.0070000  18.6770000  20.1050000  55.2970000
  21.2650000  31.5320000  89.3190000  21.1090000  31.6520000  87.9270000
  20.2840000  30.9750000  90.1500000  22.4960000  32.0200000  89.9230000
  20.3070000  31.3340000  87.5270000  22.0850000  32.2170000  87.1180000
  19.4700000  30.6580000  89.7770000  20.4630000  30.8730000  91.5370000
  23.4880000  32.5920000  89.0910000  22.6750000  31.9180000  91.3110000
  23.3090000  32.6930000  87.7170000  21.9210000  32.3420000  85.6950000
  19.4710000  30.3020000  92.3690000  21.6940000  31.3610000  92.1420000
  24.2930000  32.9130000  89.4810000  23.4890000  32.2360000  91.6830000
  24.3050000  33.2790000  86.8530000  21.1210000  32.0360000  85.2830000
  22.9000000  32.8930000  84.9330000  19.6500000  30.2000000  93.7440000
  18.6660000  29.9800000  91.9800000  21.8510000  31.2420000  93.5330000
  24.1070000  33.3760000  85.5180000  25.1150000  33.6030000  87.2290000
  22.7790000  32.9580000  83.9930000  18.6540000  29.6150000  94.6070000
  20.8750000  30.6760000  94.3430000  22.6520000  31.5590000  93.9340000
  24.7760000  33.7680000  84.9680000  18.8520000  29.5170000  95.9430000
  17.8440000  29.2910000  94.2320000  21.0380000  30.5510000  95.7650000
  20.0590000  30.0000000  96.5270000  18.1840000  29.1260000  96.4920000
  21.8380000  30.8580000  96.1770000  20.1810000  29.9350000  97.4680000
  19.4950000  22.8270000  19.0350000  19.3380000  22.9460000  17.6430000
  18.5140000  22.2700000  19.8660000  20.7260000  23.3150000  19.6390000
  18.5370000  22.6290000  17.2430000  20.3140000  23.5120000  16.8340000
  17.7000000  21.9520000  19.4930000  18.6930000  22.1680000  21.2530000
  21.7180000  23.8860000  18.8070000  20.9050000  23.2130000  21.0270000
  21.5390000  23.9870000  17.4320000  20.1510000  23.6370000  15.4110000
  17.7010000  21.5960000  22.0850000  19.9240000  22.6560000  21.8580000
  22.5230000  24.2080000  19.1970000  21.7190000  23.5300000  21.3990000
  22.5350000  24.5730000  16.5690000  19.3510000  23.3300000  14.9990000
  21.1290000  24.1880000  14.6490000  17.8800000  21.4950000  23.4600000
  16.8960000  21.2750000  21.6960000  20.0800000  22.5360000  23.2490000
  22.3370000  24.6710000  15.2340000  23.3450000  24.8970000  16.9450000
  21.0080000  24.2530000  13.7090000  16.8840000  20.9090000  24.3230000
  19.1040000  21.9710000  24.0590000  20.8820000  22.8540000  23.6500000
  23.0050000  25.0620000  14.6840000  17.0820000  20.8120000  25.6590000
  16.0740000  20.5850000  23.9480000  19.2680000  21.8460000  25.4810000
  18.2890000  21.2940000  26.2430000  16.4130000  20.4200000  26.2080000
  20.0680000  22.1520000  25.8930000  18.4100000  21.2300000  27.1840000
  20.4250000  25.9320000  35.9140000  20.5820000  25.8130000  37.3060000
  21.4060000  26.4900000  35.0840000  19.1940000  25.4440000  35.3100000
  21.3830000  26.1310000  37.7070000  19.6060000  25.2480000  38.1160000
  22.2200000  26.8070000  35.4560000  21.2270000  26.5920000  33.6960000
  18.2020000  24.8730000  36.1420000  19.0150000  25.5460000  33.9230000
  18.3810000  24.7720000  37.5170000  19.7690000  25.1220000  39.5380000
  22.2190000  27.1630000  32.8640000  19.9960000  26.1040000  33.0920000
  17.3970000  24.5520000  35.7530000  18.2010000  25.2290000  33.5500000
  17.3850000  24.1860000  38.3800000  20.5690000  25.4290000  39.9500000
  18.7910000  24.5710000  40.3000000  22.0400000  27.2640000  31.4890000
  23.0240000  27.4840000  33.2530000  19.8400000  26.2230000  31.7000000
  17.5830000  24.0890000  39.7150000  16.5750000  23.8620000  38.0050000
  18.9120000  24.5060000  41.2410000  23.0360000  27.8500000  30.6260000
  20.8160000  26.7880000  30.8900000  19.0380000  25.9050000  31.3000000
  16.9150000  23.6970000  40.2650000  22.8380000  27.9470000  29.2910000
  23.8460000  28.1740000  31.0020000  20.6520000  26.9140000  29.4680000
  21.6310000  27.4650000  28.7060000  23.5070000  28.3390000  28.7410000
  19.8520000  26.6070000  29.0560000  21.5100000  27.5300000  27.7660000
  20.4970000  29.3810000  47.1490000  20.3410000  29.5000000  45.7570000
  19.5160000  28.8230000  47.9790000  21.7280000  29.8680000  47.7530000
  19.5400000  29.1820000  45.3560000  21.3170000  30.0650000  44.9470000
  18.7030000  28.5060000  47.6070000  19.6960000  28.7210000  49.3670000
  22.7200000  30.4400000  46.9210000  21.9080000  29.7670000  49.1400000
  22.5410000  30.5410000  45.5460000  21.1530000  30.1900000  43.5250000
  18.7040000  28.1500000  50.1990000  20.9260000  29.2090000  49.9710000
  23.5250000  30.7610000  47.3100000  22.7210000  30.0840000  49.5130000
  23.5370000  31.1270000  44.6830000  20.3530000  29.8840000  43.1130000
  22.1320000  30.7420000  42.7630000  18.8820000  28.0490000  51.5740000
  17.8980000  27.8290000  49.8100000  21.0830000  29.0900000  51.3630000
  23.3390000  31.2240000  43.3480000  24.3470000  31.4510000  45.0580000
  22.0110000  30.8060000  41.8220000  17.8860000  27.4630000  52.4370000
  20.1070000  28.5250000  52.1730000  21.8840000  29.4070000  51.7630000
  24.0080000  31.6160000  42.7980000  18.0840000  27.3660000  53.7720000
  17.0770000  27.1390000  52.0610000  20.2710000  28.3990000  53.5950000
  19.2920000  27.8480000  54.3570000  17.4160000  26.9740000  54.3220000
  21.0710000  28.7060000  54.0070000  19.4130000  27.7830000  55.2970000
  18.9940000  19.5500000   4.9780000  18.8370000  19.6690000   3.5870000
  18.0120000  18.9930000   5.8090000  20.2240000  20.0380000   5.5830000
  18.0360000  19.3520000   3.1860000  19.8130000  20.2350000   2.7770000
  17.1990000  18.6760000   5.4360000  18.1920000  18.8910000   7.1960000
  21.2160000  20.6100000   4.7500000  20.4040000  19.9360000   6.9700000
  21.0380000  20.7110000   3.3760000  19.6490000  20.3600000   1.3540000
  17.2000000  18.3190000   8.0280000  19.4230000  19.3790000   7.8010000
  22.0220000  20.9310000   5.1400000  21.2170000  20.2530000   7.3430000
  22.0340000  21.2960000   2.5130000  18.8490000  20.0540000   0.9420000
  20.6280000  20.9110000   0.5920000  17.3790000  18.2180000   9.4030000
  16.3950000  17.9980000   7.6390000  19.5790000  19.2590000   9.1920000
  21.8360000  21.3940000   1.1770000  22.8430000  21.6200000   2.8880000
  20.5070000  20.9760000  -0.3480000  16.3830000  17.6320000  10.2660000
  18.6030000  18.6940000  10.0020000  20.3800000  19.5770000   9.5930000
  22.5040000  21.7850000   0.6280000  16.5810000  17.5350000  11.6020000
  15.5730000  17.3080000   9.8910000  18.7670000  18.5690000  11.4250000
  17.7880000  18.0180000  12.1860000  15.9120000  17.1430000  12.1510000
  19.5670000  18.8750000  11.8360000  17.9090000  17.9530000  13.1270000
  21.4280000  32.4860000  64.0280000  21.5840000  32.3670000  65.4200000
  22.4090000  33.0430000  63.1970000  20.1970000  31.9980000  63.4240000
  22.3850000  32.6840000  65.8200000  20.6080000  31.8010000  66.2290000
  23.2220000  33.3610000  63.5700000  22.2290000  33.1450000  61.8100000
  19.2050000  31.4270000  64.2560000  20.0170000  32.1000000  62.0360000
  19.3840000  31.3250000  65.6300000  20.7720000  31.6760000  67.6520000
  23.2210000  33.7170000  60.9780000  20.9990000  32.6570000  61.2050000
  18.4000000  31.1050000  63.8660000  19.2040000  31.7830000  61.6640000
  18.3880000  30.7400000  66.4940000  21.5720000  31.9820000  68.0640000
  19.7930000  31.1250000  68.4140000  23.0430000  33.8180000  59.6030000
  24.0270000  34.0380000  61.3670000  20.8420000  32.7770000  59.8140000
  18.5860000  30.6420000  67.8290000  17.5780000  30.4160000  66.1180000
  19.9140000  31.0600000  69.3540000  24.0390000  34.4040000  58.7400000
  21.8180000  33.3420000  59.0040000  20.0410000  32.4590000  59.4130000
  17.9170000  30.2510000  68.3790000  23.8410000  34.5010000  57.4040000
  24.8490000  34.7280000  59.1150000  21.6540000  33.4670000  57.5820000
  22.6330000  34.0180000  56.8200000  24.5090000  34.8930000  56.8550000
  20.8540000  33.1610000  57.1700000  22.5120000  34.0830000  55.8790000
  22.4300000  39.0400000  92.1420000  22.5870000  38.9200000  93.5330000
  23.4110000  39.5970000  91.3110000  21.1990000  38.5520000  91.5370000
  23.3880000  39.2380000  93.9340000  21.6110000  38.3550000  94.3430000
  24.2250000  39.9140000  91.6830000  23.2320000  39.6990000  89.9230000
  20.2070000  37.9800000  92.3690000  21.0200000  38.6540000  90.1500000
  20.3860000  37.8790000  93.7440000  21.7750000  38.2300000  95.7650000
  24.2240000  40.2710000  89.0910000  22.0010000  39.2110000  89.3190000
  19.4020000  37.6590000  91.9800000  20.2060000  38.3370000  89.7770000
  19.3900000  37.2930000  94.6070000  22.5740000  38.5360000  96.1770000
  20.7960000  37.6790000  96.5270000  24.0450000  40.3720000  87.7170000
  25.0290000  40.5920000  89.4810000  21.8450000  39.3300000  87.9270000
  19.5880000  37.1960000  95.9430000  18.5800000  36.9690000  94.2320000
  20.9170000  37.6140000  97.4680000  25.0410000  40.9570000  86.8530000
  22.8210000  39.8960000  87.1180000  21.0430000  39.0130000  87.5270000
  18.9200000  36.8040000  96.4920000  24.8430000  41.0550000  85.5180000
  25.8510000  41.2810000  87.2290000  22.6570000  40.0210000  85.6950000
  23.6360000  40.5720000  84.9330000  25.5120000  41.4460000  84.9680000
  21.8570000  39.7150000  85.2830000  23.5150000  40.6370000  83.9930000
  19.7300000  27.2290000   4.9780000  19.5730000  27.3480000   3.5870000
  18.7490000  26.6710000   5.8090000  20.9610000  27.7170000   5.5830000
  18.7720000  27.0300000   3.1860000  20.5490000  27.9130000   2.7770000
  17.9350000  26.3540000   5.4360000  18.9280000  26.5690000   7.1960000
  21.9520000  28.2880000   4.7500000  21.1400000  27.6150000   6.9700000
  21.7740000  28.3890000   3.3760000  20.3850000  28.0390000   1.3540000
  17.9360000  25.9980000   8.0280000  20.1590000  27.0570000   7.8010000
  22.7580000  28.6090000   5.1400000  21.9530000  27.9320000   7.3430000
  22.7700000  28.9750000   2.5130000  19.5860000  27.7320000   0.9420000
  21.3640000  28.5900000   0.5920000  18.1150000  25.8970000   9.4030000
  17.1310000  25.6770000   7.6390000  20.3150000  26.9380000   9.1920000
  22.5720000  29.0720000   1.1770000  23.5800000  29.2990000   2.8880000
  21.2430000  28.6550000  -0.3480000  17.1190000  25.3110000  10.2660000
  19.3390000  26.3730000  10.0020000  21.1170000  27.2550000   9.5930000
  23.2400000  29.4640000   0.6280000  17.3170000  25.2140000  11.6020000
  16.3090000  24.9870000   9.8910000  19.5030000  26.2470000  11.4250000
  18.5240000  25.6960000  12.1860000  16.6480000  24.8220000  12.1510000
  20.3030000  26.5540000  11.8360000  18.6450000  25.6310000  13.1270000
  21.2330000  37.0590000  47.1490000  21.0770000  37.1790000  45.7570000
  20.2520000  36.5020000  47.9790000  22.4640000  37.5470000  47.7530000
  20.2760000  36.8610000  45.3560000  22.0530000  37.7440000  44.9470000
  19.4390000  36.1850000  47.6070000  20.4320000  36.4000000  49.3670000
  23.4560000  38.1190000  46.9210000  22.6440000  37.4450000  49.1400000
  23.2780000  38.2200000  45.5460000  21.8890000  37.8690000  43.5250000
  19.4400000  35.8280000  50.1990000  21.6630000  36.8880000  49.9710000
  24.2620000  38.4400000  47.3100000  23.4570000  37.7620000  49.5130000
  24.2740000  38.8060000  44.6830000  21.0890000  37.5630000  43.1130000
  22.8680000  38.4200000  42.7630000  19.6180000  35.7270000  51.5740000
  18.6340000  35.5070000  49.8100000  21.8190000  36.7680000  51.3630000
  24.0760000  38.9030000  43.3480000  25.0830000  39.1300000  45.0580000
  22.7470000  38.4850000  41.8220000  18.6220000  35.1410000  52.4370000
  20.8430000  36.2030000  52.1730000  22.6200000  37.0860000  51.7630000
  24.7440000  39.2950000  42.7980000  18.8200000  35.0440000  53.7720000
  17.8130000  34.8170000  52.0610000  21.0070000  36.0780000  53.5950000
  20.0280000  35.5270000  54.3570000  18.1520000  34.6520000  54.3220000
  21.8070000  36.3840000  54.0070000  20.1490000  35.4620000  55.2970000
  22.2360000  43.6130000  75.2620000  22.0800000  43.7320000  73.8710000
  21.2550000  43.0550000  76.0930000  23.4670000  44.1010000  75.8670000
  21.2780000  43.4150000  73.4700000  23.0560000  44.2970000  73.0610000
  20.4410000  42.7380000  75.7200000  21.4340000  42.9530000  77.4800000
  24.4590000  44.6720000  75.0350000  23.6460000  43.9990000  77.2540000
  24.2800000  44.7730000  73.6600000  22.8920000  44.4230000  71.6380000
  20.4420000  42.3820000  78.3130000  22.6650000  43.4410000  78.0850000
  25.2640000  44.9930000  75.4240000  24.4600000  44.3160000  77.6270000
  25.2760000  45.3590000  72.7970000  22.0920000  44.1160000  71.2270000
  23.8710000  44.9740000  70.8770000  20.6210000  42.2810000  79.6870000
  19.6370000  42.0610000  77.9230000  22.8210000  43.3220000  79.4760000
  25.0780000  45.4560000  71.4610000  26.0860000  45.6830000  73.1720000
  23.7500000  45.0390000  69.9360000  19.6250000  41.6950000  80.5500000
  21.8460000  42.7570000  80.2860000  23.6230000  43.6400000  79.8770000
  25.7470000  45.8480000  70.9120000  19.8230000  41.5980000  81.8860000
  18.8150000  41.3710000  80.1750000  22.0090000  42.6320000  81.7090000
  21.0300000  42.0800000  82.4710000  19.1550000  41.2060000  82.4350000
  22.8090000  42.9380000  82.1210000  21.1520000  42.0160000  83.4110000
  22.7370000  46.8900000  89.3190000  22.5810000  47.0090000  87.9270000
  21.7560000  46.3320000  90.1500000  23.9680000  47.3780000  89.9230000
  21.7790000  46.6910000  87.5270000  23.5570000  47.5740000  87.1180000
  20.9430000  46.0150000  89.7770000  21.9360000  46.2300000  91.5370000
  24.9600000  47.9490000  89.0910000  24.1470000  47.2760000  91.3110000
  24.7810000  48.0500000  87.7170000  23.3930000  47.7000000  85.6950000
  20.9440000  45.6590000  92.3690000  23.1660000  46.7180000  92.1420000
  25.7650000  48.2700000  89.4810000  24.9610000  47.5930000  91.6830000
  25.7770000  48.6360000  86.8530000  22.5930000  47.3930000  85.2830000
  24.3720000  48.2510000  84.9330000  21.1220000  45.5580000  93.7440000
  20.1380000  45.3380000  91.9800000  23.3230000  46.5990000  93.5330000
  25.5790000  48.7330000  85.5180000  26.5870000  48.9600000  87.2290000
  24.2510000  48.3160000  83.9930000  20.1260000  44.9720000  94.6070000
  22.3470000  46.0340000  94.3430000  24.1240000  46.9160000  93.9340000
  26.2480000  49.1250000  84.9680000  20.3240000  44.8750000  95.9430000
  19.3160000  44.6480000  94.2320000  22.5110000  45.9080000  95.7650000
  21.5320000  45.3570000  96.5270000  19.6560000  44.4830000  96.4920000
  23.3100000  46.2150000  96.1770000  21.6530000  45.2920000  97.4680000
  23.4010000  51.1200000  78.0850000  23.5580000  51.0010000  79.4760000
  24.3820000  51.6770000  77.2540000  22.1700000  50.6320000  77.4800000
  24.3590000  51.3180000  79.8770000  22.5820000  50.4350000  80.2860000
  25.1960000  51.9950000  77.6270000  24.2030000  51.7790000  75.8670000
  21.1780000  50.0610000  78.3130000  21.9910000  50.7340000  76.0930000
  21.3570000  49.9590000  79.6870000  22.7450000  50.3100000  81.7090000
  25.1950000  52.3510000  75.0350000  22.9720000  51.2910000  75.2620000
  20.3730000  49.7390000  77.9230000  21.1770000  50.4170000  75.7200000
  20.3610000  49.3740000  80.5500000  23.5450000  50.6170000  82.1210000
  21.7670000  49.7590000  82.4710000  25.0160000  52.4520000  73.6600000
  26.0000000  52.6720000  75.4240000  22.8160000  51.4110000  73.8710000
  20.5590000  49.2760000  81.8860000  19.5510000  49.0500000  80.1750000
  21.8880000  49.6940000  83.4110000  26.0120000  53.0380000  72.7970000
  23.7920000  51.9760000  73.0610000  22.0140000  51.0930000  73.4700000
  19.8910000  48.8850000  82.4350000  25.8140000  53.1350000  71.4610000
  26.8220000  53.3620000  73.1720000  23.6280000  52.1010000  71.6380000
  24.6070000  52.6520000  70.8770000  26.4830000  53.5270000  70.9120000
  22.8280000  51.7950000  71.2270000  24.4860000  52.7170000  69.9360000
  20.4660000  34.9070000   4.9780000  20.3090000  35.0270000   3.5870000
  19.4850000  34.3500000   5.8090000  21.6970000  35.3950000   5.5830000
  19.5080000  34.7090000   3.1860000  21.2850000  35.5920000   2.7770000
  18.6710000  34.0330000   5.4360000  19.6640000  34.2480000   7.1960000
  22.6890000  35.9670000   4.7500000  21.8760000  35.2930000   6.9700000
  22.5100000  36.0680000   3.3760000  21.1220000  35.7170000   1.3540000
  18.6720000  33.6760000   8.0280000  20.8950000  34.7360000   7.8010000
  23.4940000  36.2880000   5.1400000  22.6900000  35.6100000   7.3430000
  23.5060000  36.6540000   2.5130000  20.3220000  35.4110000   0.9420000
  22.1000000  36.2680000   0.5920000  18.8510000  33.5750000   9.4030000
  17.8670000  33.3550000   7.6390000  21.0510000  34.6160000   9.1920000
  23.3080000  36.7510000   1.1770000  24.3160000  36.9780000   2.8880000
  21.9790000  36.3330000  -0.3480000  17.8550000  32.9890000  10.2660000
  20.0750000  34.0510000  10.0020000  21.8530000  34.9340000   9.5930000
  23.9760000  37.1430000   0.6280000  18.0530000  32.8920000  11.6020000
  17.0450000  32.6650000   9.8910000  20.2390000  33.9260000  11.4250000
  19.2600000  33.3750000  12.1860000  17.3840000  32.5010000  12.1510000
  21.0390000  34.2320000  11.8360000  19.3810000  33.3100000  13.1270000
  22.2040000  49.1390000  33.0920000  22.0480000  49.2590000  31.7000000
  21.2230000  48.5820000  33.9230000  23.4350000  49.6270000  33.6960000
  21.2470000  48.9410000  31.3000000  23.0240000  49.8240000  30.8900000
  20.4100000  48.2650000  33.5500000  21.4030000  48.4800000  35.3100000
  24.4270000  50.1990000  32.8640000  23.6150000  49.5250000  35.0840000
  24.2490000  50.3000000  31.4890000  22.8600000  49.9490000  29.4680000
  20.4110000  47.9090000  36.1420000  22.6340000  48.9680000  35.9140000
  25.2330000  50.5200000  33.2530000  24.4280000  49.8430000  35.4560000
  25.2450000  50.8860000  30.6260000  22.0600000  49.6430000  29.0560000
  23.8390000  50.5010000  28.7060000  20.5890000  47.8080000  37.5170000
  19.6050000  47.5870000  35.7530000  22.7900000  48.8490000  37.3060000
  25.0470000  50.9830000  29.2910000  26.0540000  51.2100000  31.0020000
  23.7180000  50.5650000  27.7660000  19.5930000  47.2220000  38.3800000
  21.8140000  48.2830000  38.1160000  23.5910000  49.1660000  37.7070000
  25.7150000  51.3750000  28.7410000  19.7910000  47.1240000  39.7150000
  18.7840000  46.8980000  38.0050000  21.9780000  48.1580000  39.5380000
  20.9990000  47.6070000  40.3000000  19.1230000  46.7330000  40.2650000
  22.7780000  48.4650000  39.9500000  21.1200000  47.5420000  41.2410000
  23.2070000  55.6930000  61.2050000  23.0510000  55.8130000  59.8140000
  22.2260000  55.1360000  62.0360000  24.4380000  56.1810000  61.8100000
  22.2490000  55.4950000  59.4130000  24.0260000  56.3780000  59.0040000
  21.4120000  54.8190000  61.6640000  22.4050000  55.0340000  63.4240000
  25.4300000  56.7530000  60.9780000  24.6170000  56.0790000  63.1970000
  25.2510000  56.8540000  59.6030000  23.8630000  56.5030000  57.5820000
  21.4130000  54.4620000  64.2560000  23.6360000  55.5220000  64.0280000
  26.2350000  57.0740000  61.3670000  25.4310000  56.3960000  63.5700000
  26.2470000  57.4400000  58.7400000  23.0630000  56.1970000  57.1700000
  24.8420000  57.0540000  56.8200000  21.5920000  54.3610000  65.6300000
  20.6080000  54.1410000  63.8660000  23.7920000  55.4020000  65.4200000
  26.0490000  57.5370000  57.4040000  27.0570000  57.7640000  59.1150000
  24.7200000  57.1190000  55.8790000  20.5960000  53.7750000  66.4940000
  22.8170000  54.8370000  66.2290000  24.5940000  55.7200000  65.8200000
  26.7180000  57.9290000  56.8550000  20.7940000  53.6780000  67.8290000
  19.7860000  53.4510000  66.1180000  22.9800000  54.7120000  67.6520000
  22.0010000  54.1610000  68.4140000  20.1260000  53.2860000  68.3790000
  23.7800000  55.0180000  68.0640000  22.1230000  54.0960000  69.3540000
  22.1320000  45.6910000  21.8580000  22.2890000  45.5720000  23.2490000
  23.1130000  46.2490000  21.0270000  20.9010000  45.2030000  21.2530000
  23.0900000  45.8900000  23.6500000  21.3130000  45.0070000  24.0590000
  23.9270000  46.5660000  21.3990000  22.9340000  46.3510000  19.6390000
  19.9100000  44.6320000  22.0850000  20.7220000  45.3050000  19.8660000
  20.0880000  44.5310000  23.4600000  21.4770000  44.8810000  25.4810000
  23.9260000  46.9220000  18.8070000  21.7030000  45.8630000  19.0350000
  19.1040000  44.3110000  21.6960000  19.9090000  44.9880000  19.4930000
  19.0920000  43.9450000  24.3230000  22.2760000  45.1880000  25.8930000
  20.4980000  44.3300000  26.2430000  23.7470000  47.0230000  17.4320000
  24.7310000  47.2430000  19.1970000  21.5470000  45.9820000  17.6430000
  19.2900000  43.8480000  25.6590000  18.2820000  43.6210000  23.9480000
  20.6190000  44.2650000  27.1840000  24.7430000  47.6090000  16.5690000
  22.5230000  46.5470000  16.8340000  20.7450000  45.6640000  17.2430000
  18.6220000  43.4560000  26.2080000  24.5450000  47.7060000  15.2340000
  25.5530000  47.9330000  16.9450000  22.3590000  46.6730000  15.4110000
  23.3380000  47.2240000  14.6490000  25.2140000  48.0980000  14.6840000
  21.5590000  46.3660000  14.9990000  23.2170000  47.2890000  13.7090000
  23.1350000  52.2450000  49.9710000  23.2910000  52.1260000  51.3630000
  24.1160000  52.8020000  49.1400000  21.9040000  51.7570000  49.3670000
  24.0930000  52.4430000  51.7630000  22.3150000  51.5600000  52.1730000
  24.9290000  53.1200000  49.5130000  23.9370000  52.9040000  47.7530000
  20.9120000  51.1850000  50.1990000  21.7250000  51.8590000  47.9790000
  21.0910000  51.0840000  51.5740000  22.4790000  51.4350000  53.5950000
  24.9280000  53.4760000  46.9210000  22.7060000  52.4160000  47.1490000
  20.1070000  50.8640000  49.8100000  20.9110000  51.5420000  47.6070000
  20.0950000  50.4990000  52.4370000  23.2790000  51.7410000  54.0070000
  21.5000000  50.8840000  54.3570000  24.7500000  53.5770000  45.5460000
  25.7340000  53.7970000  47.3100000  22.5490000  52.5360000  45.7570000
  20.2930000  50.4010000  53.7720000  19.2850000  50.1750000  52.0610000
  21.6210000  50.8190000  55.2970000  25.7460000  54.1630000  44.6830000
  23.5250000  53.1010000  44.9470000  21.7480000  52.2180000  45.3560000
  19.6240000  50.0100000  54.3220000  25.5480000  54.2600000  43.3480000
  26.5560000  54.4870000  45.0580000  23.3610000  53.2260000  43.5250000
  24.3400000  53.7770000  42.7630000  26.2160000  54.6520000  42.7980000
  22.5620000  52.9200000  43.1130000  24.2190000  53.8420000  41.8220000
  21.2020000  42.5860000   4.9780000  21.0460000  42.7050000   3.5870000
  20.2210000  42.0280000   5.8090000  22.4330000  43.0740000   5.5830000
  20.2440000  42.3880000   3.1860000  22.0210000  43.2710000   2.7770000
  19.4070000  41.7110000   5.4360000  20.4000000  41.9270000   7.1960000
  23.4250000  43.6450000   4.7500000  22.6120000  42.9720000   6.9700000
  23.2460000  43.7460000   3.3760000  21.8580000  43.3960000   1.3540000
  19.4080000  41.3550000   8.0280000  21.6310000  42.4150000   7.8010000
  24.2300000  43.9660000   5.1400000  23.4260000  43.2890000   7.3430000
  24.2420000  44.3320000   2.5130000  21.0580000  43.0890000   0.9420000
  22.8370000  43.9470000   0.5920000  19.5870000  41.2540000   9.4030000
  18.6030000  41.0340000   7.6390000  21.7870000  42.2950000   9.1920000
  24.0440000  44.4290000   1.1770000  25.0520000  44.6560000   2.8880000
  22.7150000  44.0120000  -0.3480000  18.5910000  40.6680000  10.2660000
  20.8110000  41.7300000  10.0020000  22.5890000  42.6130000   9.5930000
  24.7120000  44.8210000   0.6280000  18.7890000  40.5710000  11.6020000
  17.7810000  40.3440000   9.8910000  20.9750000  41.6050000  11.4250000
  19.9960000  41.0530000  12.1860000  18.1200000  40.1790000  12.1510000
  21.7750000  41.9110000  11.8360000  20.1170000  40.9890000  13.1270000
  24.2100000  62.2470000  89.3190000  24.0530000  62.3660000  87.9270000
  23.2280000  61.6890000  90.1500000  25.4400000  62.7350000  89.9230000
  23.2520000  62.0490000  87.5270000  25.0290000  62.9320000  87.1180000
  22.4150000  61.3720000  89.7770000  23.4080000  61.5880000  91.5370000
  26.4320000  63.3060000  89.0910000  25.6200000  62.6330000  91.3110000
  26.2540000  63.4070000  87.7170000  24.8650000  63.0570000  85.6950000
  22.4160000  61.0160000  92.3690000  24.6390000  62.0760000  92.1420000
  27.2380000  63.6270000  89.4810000  26.4330000  62.9500000  91.6830000
  27.2500000  63.9930000  86.8530000  24.0650000  62.7500000  85.2830000
  25.8440000  63.6080000  84.9330000  22.5940000  60.9150000  93.7440000
  21.6110000  60.6950000  91.9800000  24.7950000  61.9560000  93.5330000
  27.0520000  64.0900000  85.5180000  28.0590000  64.3170000  87.2290000
  25.7230000  63.6730000  83.9930000  21.5980000  60.3290000  94.6070000
  23.8190000  61.3910000  94.3430000  25.5960000  62.2740000  93.9340000
  27.7200000  64.4820000  84.9680000  21.7960000  60.2320000  95.9430000
  20.7890000  60.0050000  94.2320000  23.9830000  61.2660000  95.7650000
  23.0040000  60.7140000  96.5270000  21.1280000  59.8400000  96.4920000
  24.7830000  61.5720000  96.1770000  23.1250000  60.6500000  97.4680000
  22.4390000  53.5410000  19.0350000  22.2830000  53.6610000  17.6430000
  21.4580000  52.9840000  19.8660000  23.6700000  54.0290000  19.6390000
  21.4820000  53.3430000  17.2430000  23.2590000  54.2260000  16.8340000
  20.6450000  52.6670000  19.4930000  21.6380000  52.8820000  21.2530000
  24.6620000  54.6010000  18.8070000  23.8500000  53.9270000  21.0270000
  24.4830000  54.7020000  17.4320000  23.0950000  54.3510000  15.4110000
  20.6460000  52.3100000  22.0850000  22.8680000  53.3700000  21.8580000
  25.4670000  54.9220000  19.1970000  24.6630000  54.2440000  21.3990000
  25.4790000  55.2880000  16.5690000  22.2950000  54.0450000  14.9990000
  24.0740000  54.9020000  14.6490000  20.8240000  52.2090000  23.4600000
  19.8400000  51.9890000  21.6960000  23.0250000  53.2510000  23.2490000
  25.2810000  55.3850000  15.2340000  26.2890000  55.6120000  16.9450000
  23.9530000  54.9670000  13.7090000  19.8280000  51.6230000  24.3230000
  22.0490000  52.6850000  24.0590000  23.8260000  53.5680000  23.6500000
  25.9500000  55.7770000  14.6840000  20.0260000  51.5260000  25.6590000
  19.0180000  51.2990000  23.9480000  22.2130000  52.5600000  25.4810000
  21.2340000  52.0090000  26.2430000  19.3580000  51.1350000  26.2080000
  23.0120000  52.8660000  25.8930000  21.3550000  51.9440000  27.1840000
  23.4420000  60.0950000  47.1490000  23.2850000  60.2140000  45.7570000
  22.4610000  59.5380000  47.9790000  24.6730000  60.5830000  47.7530000
  22.4840000  59.8970000  45.3560000  24.2610000  60.7800000  44.9470000
  21.6470000  59.2200000  47.6070000  22.6400000  59.4360000  49.3670000
  25.6650000  61.1540000  46.9210000  24.8520000  60.4810000  49.1400000
  25.4860000  61.2560000  45.5460000  24.0980000  60.9050000  43.5250000
  21.6480000  58.8640000  50.1990000  23.8710000  59.9240000  49.9710000
  26.4700000  61.4760000  47.3100000  25.6660000  60.7980000  49.5130000
  26.4820000  61.8410000  44.6830000  23.2980000  60.5980000  43.1130000
  25.0760000  61.4560000  42.7630000  21.8270000  58.7630000  51.5740000
  20.8430000  58.5430000  49.8100000  24.0270000  59.8040000  51.3630000
  26.2840000  61.9390000  43.3480000  27.2920000  62.1650000  45.0580000
  24.9550000  61.5210000  41.8220000  20.8310000  58.1770000  52.4370000
  23.0510000  59.2390000  52.1730000  24.8290000  60.1220000  51.7630000
  26.9520000  62.3300000  42.7980000  21.0290000  58.0800000  53.7720000
  20.0210000  57.8530000  52.0610000  23.2150000  59.1140000  53.5950000
  22.2360000  58.5630000  54.3570000  20.3600000  57.6880000  54.3220000
  24.0150000  59.4200000  54.0070000  22.3570000  58.4980000  55.2970000
  23.3700000  56.6470000  35.9140000  23.5260000  56.5270000  37.3060000
  24.3510000  57.2040000  35.0840000  22.1390000  56.1590000  35.3100000
  24.3270000  56.8450000  37.7070000  22.5500000  55.9620000  38.1160000
  25.1640000  57.5210000  35.4560000  24.1710000  57.3060000  33.6960000
  21.1470000  55.5870000  36.1420000  21.9590000  56.2610000  33.9230000
  21.3260000  55.4860000  37.5170000  22.7140000  55.8370000  39.5380000
  25.1630000  57.8780000  32.8640000  22.9410000  56.8180000  33.0920000
  20.3420000  55.2660000  35.7530000  21.1460000  55.9440000  33.5500000
  20.3300000  54.9000000  38.3800000  23.5140000  56.1430000  39.9500000
  21.7350000  55.2860000  40.3000000  24.9850000  57.9790000  31.4890000
  25.9690000  58.1990000  33.2530000  22.7840000  56.9370000  31.7000000
  20.5280000  54.8030000  39.7150000  19.5200000  54.5760000  38.0050000
  21.8560000  55.2210000  41.2410000  25.9810000  58.5650000  30.6260000
  23.7600000  57.5030000  30.8900000  21.9830000  56.6200000  31.3000000
  19.8590000  54.4110000  40.2650000  25.7830000  58.6620000  29.2910000
  26.7900000  58.8890000  31.0020000  23.5960000  57.6280000  29.4680000
  24.5750000  58.1790000  28.7060000  26.4510000  59.0530000  28.7410000
  22.7960000  57.3220000  29.0560000  24.4540000  58.2440000  27.7660000
  21.9380000  50.2640000   4.9780000  21.7820000  50.3840000   3.5870000
  20.9570000  49.7070000   5.8090000  23.1690000  50.7520000   5.5830000
  20.9800000  50.0660000   3.1860000  22.7580000  50.9490000   2.7770000
  20.1430000  49.3900000   5.4360000  21.1360000  49.6050000   7.1960000
  24.1610000  51.3240000   4.7500000  23.3480000  50.6500000   6.9700000
  23.9820000  51.4250000   3.3760000  22.5940000  51.0740000   1.3540000
  20.1440000  49.0340000   8.0280000  22.3670000  50.0930000   7.8010000
  24.9660000  51.6450000   5.1400000  24.1620000  50.9680000   7.3430000
  24.9780000  52.0110000   2.5130000  21.7940000  50.7680000   0.9420000
  23.5730000  51.6250000   0.5920000  20.3230000  48.9320000   9.4030000
  19.3390000  48.7120000   7.6390000  22.5240000  49.9740000   9.1920000
  24.7800000  52.1080000   1.1770000  25.7880000  52.3350000   2.8880000
  23.4520000  51.6900000  -0.3480000  19.3270000  48.3470000  10.2660000
  21.5480000  49.4080000  10.0020000  23.3250000  50.2910000   9.5930000
  25.4490000  52.5000000   0.6280000  19.5250000  48.2490000  11.6020000
  18.5170000  48.0230000   9.8910000  21.7110000  49.2830000  11.4250000
  20.7320000  48.7320000  12.1860000  18.8570000  47.8580000  12.1510000
  22.5110000  49.5900000  11.8360000  20.8540000  48.6670000  13.1270000
  23.1750000  61.2200000  19.0350000  23.0190000  61.3390000  17.6430000
  22.1940000  60.6630000  19.8660000  24.4060000  61.7080000  19.6390000
  22.2180000  61.0220000  17.2430000  23.9950000  61.9050000  16.8340000
  21.3810000  60.3450000  19.4930000  22.3740000  60.5610000  21.2530000
  25.3980000  62.2790000  18.8070000  24.5860000  61.6060000  21.0270000
  25.2200000  62.3800000  17.4320000  23.8310000  62.0300000  15.4110000
  21.3820000  59.9890000  22.0850000  23.6040000  61.0490000  21.8580000
  26.2030000  62.6000000  19.1970000  25.3990000  61.9230000  21.3990000
  26.2160000  62.9660000  16.5690000  23.0310000  61.7230000  14.9990000
  24.8100000  62.5810000  14.6490000  21.5600000  59.8880000  23.4600000
  20.5760000  59.6680000  21.6960000  23.7610000  60.9290000  23.2490000
  26.0180000  63.0640000  15.2340000  27.0250000  63.2900000  16.9450000
  24.6890000  62.6460000  13.7090000  20.5640000  59.3020000  24.3230000
  22.7850000  60.3640000  24.0590000  24.5620000  61.2470000  23.6500000
  26.6860000  63.4550000  14.6840000  20.7620000  59.2050000  25.6590000
  19.7550000  58.9780000  23.9480000  22.9490000  60.2390000  25.4810000
  21.9700000  59.6870000  26.2430000  20.0940000  58.8130000  26.2080000
  23.7490000  60.5450000  25.8930000  22.0910000  59.6230000  27.1840000
  24.1780000  67.7730000  47.1490000  24.0220000  67.8930000  45.7570000
  23.1970000  67.2160000  47.9790000  25.4090000  68.2610000  47.7530000
  23.2200000  67.5750000  45.3560000  24.9970000  68.4580000  44.9470000
  22.3830000  66.8990000  47.6070000  23.3760000  67.1140000  49.3670000
  26.4010000  68.8330000  46.9210000  25.5880000  68.1600000  49.1400000
  26.2220000  68.9340000  45.5460000  24.8340000  68.5830000  43.5250000
  22.3840000  66.5430000  50.1990000  24.6070000  67.6020000  49.9710000
  27.2060000  69.1540000  47.3100000  26.4020000  68.4770000  49.5130000
  27.2180000  69.5200000  44.6830000  24.0340000  68.2770000  43.1130000
  25.8130000  69.1350000  42.7630000  22.5630000  66.4420000  51.5740000
  21.5790000  66.2220000  49.8100000  24.7630000  67.4830000  51.3630000
  27.0200000  69.6170000  43.3480000  28.0280000  69.8440000  45.0580000
  25.6910000  69.1990000  41.8220000  21.5670000  65.8560000  52.4370000
  23.7880000  66.9170000  52.1730000  25.5650000  67.8000000  51.7630000
  27.6880000  70.0090000  42.7980000  21.7650000  65.7590000  53.7720000
  20.7570000  65.5320000  52.0610000  23.9510000  66.7920000  53.5950000
  22.9720000  66.2410000  54.3570000  21.0960000  65.3670000  54.3220000
  24.7510000  67.0990000  54.0070000  23.0930000  66.1760000  55.2970000
  26.1110000  77.4330000  92.1420000  26.2670000  77.3130000  93.5330000
  27.0920000  77.9900000  91.3110000  24.8800000  76.9450000  91.5370000
  27.0690000  77.6310000  93.9340000  25.2910000  76.7480000  94.3430000
  27.9050000  78.3070000  91.6830000  26.9130000  78.0920000  89.9230000
  23.8880000  76.3730000  92.3690000  24.7010000  77.0470000  90.1500000
  24.0670000  76.2720000  93.7440000  25.4550000  76.6230000  95.7650000
  27.9040000  78.6640000  89.0910000  25.6820000  77.6040000  89.3190000
  23.0830000  76.0520000  91.9800000  23.8870000  76.7290000  89.7770000
  23.0710000  75.6860000  94.6070000  26.2550000  76.9290000  96.1770000
  24.4760000  76.0720000  96.5270000  27.7260000  78.7650000  87.7170000
  28.7100000  78.9850000  89.4810000  25.5250000  77.7230000  87.9270000
  23.2690000  75.5890000  95.9430000  22.2610000  75.3620000  94.2320000
  24.5970000  76.0070000  97.4680000  28.7220000  79.3500000  86.8530000
  26.5010000  78.2890000  87.1180000  24.7240000  77.4060000  87.5270000
  22.6000000  75.1970000  96.4920000  28.5240000  79.4480000  85.5180000
  29.5320000  79.6740000  87.2290000  26.3370000  78.4140000  85.6950000
  27.3160000  78.9650000  84.9330000  29.1920000  79.8390000  84.9680000
  25.5380000  78.1080000  85.2830000  27.1950000  79.0300000  83.9930000
  24.6790000  71.0500000  61.2050000  24.5230000  71.1700000  59.8140000
  23.6980000  70.4930000  62.0360000  25.9100000  71.5380000  61.8100000
  23.7210000  70.8520000  59.4130000  25.4990000  71.7350000  59.0040000
  22.8850000  70.1760000  61.6640000  23.8770000  70.3910000  63.4240000
  26.9020000  72.1100000  60.9780000  26.0890000  71.4360000  63.1970000
  26.7230000  72.2110000  59.6030000  25.3350000  71.8600000  57.5820000
  22.8860000  69.8190000  64.2560000  25.1080000  70.8790000  64.0280000
  27.7070000  72.4310000  61.3670000  26.9030000  71.7540000  63.5700000
  27.7190000  72.7970000  58.7400000  24.5350000  71.5540000  57.1700000
  26.3140000  72.4110000  56.8200000  23.0640000  69.7180000  65.6300000
  22.0800000  69.4980000  63.8660000  25.2650000  70.7600000  65.4200000
  27.5210000  72.8940000  57.4040000  28.5290000  73.1210000  59.1150000
  26.1930000  72.4760000  55.8790000  22.0680000  69.1330000  66.4940000
  24.2890000  70.1940000  66.2290000  26.0660000  71.0770000  65.8200000
  28.1900000  73.2860000  56.8550000  22.2660000  69.0350000  67.8290000
  21.2580000  68.8090000  66.1180000  24.4530000  70.0690000  67.6520000
  23.4740000  69.5180000  68.4140000  21.5980000  68.6440000  68.3790000
  25.2520000  70.3750000  68.0640000  23.5950000  69.4530000  69.3540000
  23.4100000  65.6220000   4.9780000  23.2540000  65.7410000   3.5870000
  22.4290000  65.0640000   5.8090000  24.6410000  66.1100000   5.5830000
  22.4520000  65.4230000   3.1860000  24.2300000  66.3060000   2.7770000
  21.6160000  64.7470000   5.4360000  22.6090000  64.9620000   7.1960000
  25.6330000  66.6810000   4.7500000  24.8200000  66.0080000   6.9700000
  25.4540000  66.7820000   3.3760000  24.0660000  66.4320000   1.3540000
  21.6170000  64.3910000   8.0280000  23.8390000  65.4500000   7.8010000
  26.4380000  67.0020000   5.1400000  25.6340000  66.3250000   7.3430000
  26.4500000  67.3680000   2.5130000  23.2660000  66.1250000   0.9420000
  25.0450000  66.9830000   0.5920000  21.7950000  64.2900000   9.4030000
  20.8110000  64.0700000   7.6390000  23.9960000  65.3310000   9.1920000
  26.2520000  67.4650000   1.1770000  27.2600000  67.6920000   2.8880000
  24.9240000  67.0480000  -0.3480000  20.7990000  63.7040000  10.2660000
  23.0200000  64.7660000  10.0020000  24.7970000  65.6480000   9.5930000
  26.9210000  67.8570000   0.6280000  20.9970000  63.6070000  11.6020000
  19.9890000  63.3800000   9.8910000  23.1840000  64.6400000  11.4250000
  22.2050000  64.0890000  12.1860000  20.3290000  63.2150000  12.1510000
  23.9830000  64.9470000  11.8360000  22.3260000  64.0240000  13.1270000
  25.0770000  76.4060000  21.8580000  25.2330000  76.2860000  23.2490000
  26.0580000  76.9630000  21.0270000  23.8460000  75.9180000  21.2530000
  26.0350000  76.6040000  23.6500000  24.2570000  75.7210000  24.0590000
  26.8710000  77.2800000  21.3990000  25.8780000  77.0650000  19.6390000
  22.8540000  75.3460000  22.0850000  23.6670000  76.0200000  19.8660000
  23.0330000  75.2450000  23.4600000  24.4210000  75.5960000  25.4810000
  26.8700000  77.6370000  18.8070000  24.6480000  76.5770000  19.0350000
  22.0490000  75.0250000  21.6960000  22.8530000  75.7030000  19.4930000
  22.0370000  74.6590000  24.3230000  25.2210000  75.9020000  25.8930000
  23.4420000  75.0450000  26.2430000  26.6920000  77.7380000  17.4320000
  27.6760000  77.9580000  19.1970000  24.4910000  76.6960000  17.6430000
  22.2350000  74.5620000  25.6590000  21.2270000  74.3350000  23.9480000
  23.5630000  74.9800000  27.1840000  27.6880000  78.3240000  16.5690000
  25.4670000  77.2620000  16.8340000  23.6900000  76.3790000  17.2430000
  21.5660000  74.1700000  26.2080000  27.4900000  78.4210000  15.2340000
  28.4980000  78.6470000  16.9450000  25.3030000  77.3870000  15.4110000
  26.2820000  77.9380000  14.6490000  28.1580000  78.8120000  14.6840000
  24.5040000  77.0810000  14.9990000  26.1610000  78.0030000  13.7090000
  25.6500000  83.1310000  47.1490000  25.4940000  83.2500000  45.7570000
  24.6690000  82.5730000  47.9790000  26.8810000  83.6190000  47.7530000
  24.6920000  82.9320000  45.3560000  26.4700000  83.8150000  44.9470000
  23.8560000  82.2560000  47.6070000  24.8480000  82.4710000  49.3670000
  27.8730000  84.1900000  46.9210000  27.0600000  83.5170000  49.1400000
  27.6940000  84.2910000  45.5460000  26.3060000  83.9410000  43.5250000
  23.8570000  81.9000000  50.1990000  26.0790000  82.9590000  49.9710000
  28.6780000  84.5110000  47.3100000  27.8740000  83.8340000  49.5130000
  28.6900000  84.8770000  44.6830000  25.5060000  83.6340000  43.1130000
  27.2850000  84.4920000  42.7630000  24.0350000  81.7990000  51.5740000
  23.0510000  81.5790000  49.8100000  26.2360000  82.8400000  51.3630000
  28.4920000  84.9740000  43.3480000  29.5000000  85.2010000  45.0580000
  27.1640000  84.5570000  41.8220000  23.0390000  81.2130000  52.4370000
  25.2600000  82.2750000  52.1730000  27.0370000  83.1580000  51.7630000
  29.1610000  85.3660000  42.7980000  23.2370000  81.1160000  53.7720000
  22.2290000  80.8890000  52.0610000  25.4240000  82.1490000  53.5950000
  24.4450000  81.5980000  54.3570000  22.5690000  80.7240000  54.3220000
  26.2230000  82.4560000  54.0070000  24.5660000  81.5330000  55.2970000
  26.1510000  86.4080000  61.2050000  25.9950000  86.5270000  59.8140000
  25.1700000  85.8500000  62.0360000  27.3820000  86.8950000  61.8100000
  25.1940000  86.2090000  59.4130000  26.9710000  87.0920000  59.0040000
  24.3570000  85.5330000  61.6640000  25.3500000  85.7480000  63.4240000
  28.3740000  87.4670000  60.9780000  27.5620000  86.7940000  63.1970000
  28.1960000  87.5680000  59.6030000  26.8070000  87.2170000  57.5820000
  24.3580000  85.1770000  64.2560000  26.5810000  86.2360000  64.0280000
  29.1800000  87.7880000  61.3670000  28.3750000  87.1110000  63.5700000
  29.1920000  88.1540000  58.7400000  26.0070000  86.9110000  57.1700000
  27.7860000  87.7690000  56.8200000  24.5360000  85.0760000  65.6300000
  23.5520000  84.8560000  63.8660000  26.7370000  86.1170000  65.4200000
  28.9940000  88.2510000  57.4040000  30.0010000  88.4780000  59.1150000
  27.6650000  87.8330000  55.8790000  23.5400000  84.4900000  66.4940000
  25.7610000  85.5520000  66.2290000  27.5380000  86.4340000  65.8200000
  29.6620000  88.6430000  56.8550000  23.7380000  84.3930000  67.8290000
  22.7310000  84.1660000  66.1180000  25.9250000  85.4260000  67.6520000
  24.9460000  84.8750000  68.4140000  23.0700000  84.0010000  68.3790000
  26.7250000  85.7330000  68.0640000  25.0670000  84.8100000  69.3540000
  27.0820000  89.5130000  78.0850000  27.2380000  89.3940000  79.4760000
  28.0630000  90.0700000  77.2540000  25.8510000  89.0250000  77.4800000
  28.0400000  89.7110000  79.8770000  26.2620000  88.8280000  80.2860000
  28.8760000  90.3880000  77.6270000  27.8840000  90.1720000  75.8670000
  24.8590000  88.4540000  78.3130000  25.6720000  89.1270000  76.0930000
  25.0380000  88.3520000  79.6870000  26.4260000  88.7030000  81.7090000
  28.8750000  90.7440000  75.0350000  26.6530000  89.6840000  75.2620000
  24.0540000  88.1320000  77.9230000  24.8580000  88.8100000  75.7200000
  24.0420000  87.7670000  80.5500000  27.2260000  89.0090000  82.1210000
  25.4470000  88.1520000  82.4710000  28.6970000  90.8450000  73.6600000
  29.6810000  91.0650000  75.4240000  26.4960000  89.8040000  73.8710000
  24.2400000  87.6690000  81.8860000  23.2320000  87.4430000  80.1750000
  25.5680000  88.0870000  83.4110000  29.6930000  91.4310000  72.7970000
  27.4720000  90.3690000  73.0610000  25.6950000  89.4860000  73.4700000
  23.5710000  87.2780000  82.4350000  29.4950000  91.5280000  71.4610000
  30.5030000  91.7550000  73.1720000  27.3080000  90.4940000  71.6380000
  28.2870000  91.0450000  70.8770000  30.1630000  91.9200000  70.9120000
  26.5090000  90.1880000  71.2270000  28.1660000  91.1100000  69.9360000
  27.1540000  92.9610000  89.3190000  26.9980000  93.0810000  87.9270000
  26.1730000  92.4040000  90.1500000  28.3850000  93.4490000  89.9230000
  26.1960000  92.7630000  87.5270000  27.9730000  93.6460000  87.1180000
  25.3590000  92.0870000  89.7770000  26.3520000  92.3020000  91.5370000
  29.3770000  94.0210000  89.0910000  28.5640000  93.3470000  91.3110000
  29.1980000  94.1220000  87.7170000  27.8100000  93.7710000  85.6950000
  25.3600000  91.7300000  92.3690000  27.5830000  92.7900000  92.1420000
  30.1820000  94.3420000  89.4810000  29.3780000  93.6640000  91.6830000
  30.1940000  94.7080000  86.8530000  27.0100000  93.4650000  85.2830000
  28.7890000  94.3220000  84.9330000  25.5390000  91.6290000  93.7440000
  24.5550000  91.4090000  91.9800000  27.7390000  92.6700000  93.5330000
  29.9960000  94.8050000  85.5180000  31.0040000  95.0320000  87.2290000
  28.6670000  94.3870000  83.9930000  24.5430000  91.0430000  94.6070000
  26.7640000  92.1050000  94.3430000  28.5410000  92.9880000  93.9340000
  30.6650000  95.1970000  84.9680000  24.7410000  90.9460000  95.9430000
  23.7330000  90.7190000  94.2320000  26.9270000  91.9800000  95.7650000
  25.9480000  91.4290000  96.5270000  24.0720000  90.5540000  96.4920000
  27.7270000  92.2860000  96.1770000  26.0700000  91.3640000  97.4680000
  24.8830000  80.9790000   4.9780000  24.7260000  81.0980000   3.5870000
  23.9010000  80.4210000   5.8090000  26.1130000  81.4670000   5.5830000
  23.9250000  80.7810000   3.1860000  25.7020000  81.6630000   2.7770000
  23.0880000  80.1040000   5.4360000  24.0810000  80.3200000   7.1960000
  27.1050000  82.0380000   4.7500000  26.2930000  81.3650000   6.9700000
  26.9270000  82.1390000   3.3760000  25.5380000  81.7890000   1.3540000
  23.0890000  79.7480000   8.0280000  25.3120000  80.8070000   7.8010000
  27.9110000  82.3590000   5.1400000  27.1060000  81.6820000   7.3430000
  27.9230000  82.7250000   2.5130000  24.7380000  81.4820000   0.9420000
  26.5170000  82.3400000   0.5920000  23.2680000  79.6470000   9.4030000
  22.2840000  79.4270000   7.6390000  25.4680000  80.6880000   9.1920000
  27.7250000  82.8220000   1.1770000  28.7320000  83.0490000   2.8880000
  26.3960000  82.4050000  -0.3480000  22.2720000  79.0610000  10.2660000
  24.4920000  80.1230000  10.0020000  26.2690000  81.0060000   9.5930000
  28.3930000  83.2140000   0.6280000  22.4690000  78.9640000  11.6020000
  21.4620000  78.7370000   9.8910000  24.6560000  79.9980000  11.4250000
  23.6770000  79.4460000  12.1860000  21.8010000  78.5720000  12.1510000
  25.4560000  80.3040000  11.8360000  23.7980000  79.3820000  13.1270000
  27.3170000  93.9150000  64.0280000  27.4730000  93.7950000  65.4200000
  28.2980000  94.4720000  63.1970000  26.0860000  93.4270000  63.4240000
  28.2740000  94.1130000  65.8200000  26.4970000  93.2300000  66.2290000
  29.1110000  94.7890000  63.5700000  28.1180000  94.5740000  61.8100000
  25.0940000  92.8550000  64.2560000  25.9060000  93.5290000  62.0360000
  25.2730000  92.7540000  65.6300000  26.6610000  93.1050000  67.6520000
  29.1100000  95.1460000  60.9780000  26.8880000  94.0860000  61.2050000
  24.2890000  92.5340000  63.8660000  25.0930000  93.2120000  61.6640000
  24.2770000  92.1680000  66.4940000  27.4610000  93.4110000  68.0640000
  25.6820000  92.5540000  68.4140000  28.9320000  95.2470000  59.6030000
  29.9160000  95.4670000  61.3670000  26.7310000  94.2060000  59.8140000
  24.4750000  92.0710000  67.8290000  23.4670000  91.8440000  66.1180000
  25.8030000  92.4890000  69.3540000  29.9280000  95.8330000  58.7400000
  27.7070000  94.7710000  59.0040000  25.9300000  93.8880000  59.4130000
  23.8060000  91.6790000  68.3790000  29.7300000  95.9300000  57.4040000
  30.7370000  96.1570000  59.1150000  27.5430000  94.8960000  57.5820000
  28.5220000  95.4470000  56.8200000  30.3980000  96.3220000  56.8550000
  26.7430000  94.5900000  57.1700000  28.4010000  95.5120000  55.8790000
  26.8150000  90.6380000  49.9710000  26.9720000  90.5190000  51.3630000
  27.7970000  91.1950000  49.1400000  25.5850000  90.1500000  49.3670000
  27.7730000  90.8360000  51.7630000  25.9960000  89.9530000  52.1730000
  28.6100000  91.5120000  49.5130000  27.6170000  91.2970000  47.7530000
  24.5930000  89.5780000  50.1990000  25.4050000  90.2520000  47.9790000
  24.7710000  89.4770000  51.5740000  26.1600000  89.8280000  53.5950000
  28.6090000  91.8690000  46.9210000  26.3860000  90.8090000  47.1490000
  23.7870000  89.2570000  49.8100000  24.5920000  89.9350000  47.6070000
  23.7750000  88.8920000  52.4370000  26.9590000  90.1340000  54.0070000
  25.1810000  89.2770000  54.3570000  28.4300000  91.9700000  45.5460000
  29.4140000  92.1900000  47.3100000  26.2300000  90.9290000  45.7570000
  23.9730000  88.7940000  53.7720000  22.9650000  88.5680000  52.0610000
  25.3020000  89.2120000  55.2970000  29.4260000  92.5560000  44.6830000
  27.2060000  91.4940000  44.9470000  25.4290000  90.6110000  45.3560000
  23.3050000  88.4030000  54.3220000  29.2280000  92.6530000  43.3480000
  30.2360000  92.8800000  45.0580000  27.0420000  91.6190000  43.5250000
  28.0210000  92.1700000  42.7630000  29.8970000  93.0450000  42.7980000
  26.2420000  91.3130000  43.1130000  27.9000000  92.2350000  41.8220000
  18.0230000   7.4700000  19.0350000  17.8660000   7.5890000  17.6430000
  17.0410000   6.9120000  19.8660000  19.2530000   7.9580000  19.6390000
  17.0650000   7.2710000  17.2430000  18.8420000   8.1540000  16.8340000
  16.2280000   6.5950000  19.4930000  17.2210000   6.8100000  21.2530000
  20.2450000   8.5290000  18.8070000  19.4330000   7.8560000  21.0270000
  20.0670000   8.6300000  17.4320000  18.6780000   8.2800000  15.4110000
  16.2290000   6.2390000  22.0850000  18.4520000   7.2980000  21.8580000
  21.0510000   8.8500000  19.1970000  20.2460000   8.1730000  21.3990000
  21.0630000   9.2160000  16.5690000  17.8780000   7.9730000  14.9990000
  19.6570000   8.8310000  14.6490000  16.4080000   6.1380000  23.4600000
  15.4240000   5.9180000  21.6960000  18.6080000   7.1790000  23.2490000
  20.8650000   9.3130000  15.2340000  21.8720000   9.5400000  16.9450000
  19.5360000   8.8960000  13.7090000  15.4120000   5.5520000  24.3230000
  17.6320000   6.6140000  24.0590000  19.4090000   7.4970000  23.6500000
  21.5330000   9.7050000  14.6840000  15.6100000   5.4550000  25.6590000
  14.6020000   5.2280000  23.9480000  17.7960000   6.4880000  25.4810000
  16.8170000   5.9370000  26.2430000  14.9410000   5.0630000  26.2080000
  18.5960000   6.7950000  25.8930000  16.9380000   5.8720000  27.1840000
  20.5290000  23.8540000  89.3190000  20.3720000  23.9730000  87.9270000
  19.5480000  23.2970000  90.1500000  21.7600000  24.3420000  89.9230000
  19.5710000  23.6560000  87.5270000  21.3480000  24.5390000  87.1180000
  18.7340000  22.9790000  89.7770000  19.7270000  23.1950000  91.5370000
  22.7520000  24.9130000  89.0910000  21.9390000  24.2400000  91.3110000
  22.5730000  25.0140000  87.7170000  21.1850000  24.6640000  85.6950000
  18.7350000  22.6230000  92.3690000  20.9580000  23.6830000  92.1420000
  23.5570000  25.2340000  89.4810000  22.7530000  24.5570000  91.6830000
  23.5690000  25.6000000  86.8530000  20.3850000  24.3570000  85.2830000
  22.1640000  25.2150000  84.9330000  18.9140000  22.5220000  93.7440000
  17.9300000  22.3020000  91.9800000  21.1140000  23.5630000  93.5330000
  23.3710000  25.6980000  85.5180000  24.3790000  25.9240000  87.2290000
  22.0420000  25.2800000  83.9930000  17.9180000  21.9360000  94.6070000
  20.1380000  22.9980000  94.3430000  21.9160000  23.8810000  93.9340000
  24.0390000  26.0890000  84.9680000  18.1160000  21.8390000  95.9430000
  17.1080000  21.6120000  94.2320000  20.3020000  22.8730000  95.7650000
  19.3230000  22.3210000  96.5270000  17.4470000  21.4470000  96.4920000
  21.1020000  23.1790000  96.1770000  19.4440000  22.2570000  97.4680000
  20.6920000  24.8070000  64.0280000  20.8480000  24.6880000  65.4200000
  21.6730000  25.3650000  63.1970000  19.4610000  24.3190000  63.4240000
  21.6490000  25.0060000  65.8200000  19.8720000  24.1230000  66.2290000
  22.4860000  25.6820000  63.5700000  21.4930000  25.4670000  61.8100000
  18.4690000  23.7480000  64.2560000  19.2810000  24.4210000  62.0360000
  18.6470000  23.6470000  65.6300000  20.0360000  23.9970000  67.6520000
  22.4850000  26.0380000  60.9780000  20.2630000  24.9790000  61.2050000
  17.6640000  23.4270000  63.8660000  18.4680000  24.1040000  61.6640000
  17.6510000  23.0610000  66.4940000  20.8360000  24.3040000  68.0640000
  19.0570000  23.4460000  68.4140000  22.3070000  26.1390000  59.6030000
  23.2910000  26.3590000  61.3670000  20.1060000  25.0980000  59.8140000
  17.8490000  22.9640000  67.8290000  16.8420000  22.7370000  66.1180000
  19.1780000  23.3810000  69.3540000  23.3030000  26.7250000  58.7400000
  21.0820000  25.6630000  59.0040000  19.3050000  24.7810000  59.4130000
  17.1810000  22.5720000  68.3790000  23.1050000  26.8220000  57.4040000
  24.1120000  27.0490000  59.1150000  20.9180000  25.7890000  57.5820000
  21.8970000  26.3400000  56.8200000  23.7730000  27.2140000  56.8550000
  20.1180000  25.4820000  57.1700000  21.7760000  26.4050000  55.8790000
  21.1930000  28.0840000  78.0850000  21.3490000  27.9650000  79.4760000
  22.1740000  28.6420000  77.2540000  19.9620000  27.5960000  77.4800000
  22.1510000  28.2820000  79.8770000  20.3730000  27.4000000  80.2860000
  22.9870000  28.9590000  77.6270000  21.9950000  28.7440000  75.8670000
  18.9700000  27.0250000  78.3130000  19.7830000  27.6980000  76.0930000
  19.1490000  26.9240000  79.6870000  20.5370000  27.2740000  81.7090000
  22.9870000  29.3150000  75.0350000  20.7640000  28.2560000  75.2620000
  18.1650000  26.7040000  77.9230000  18.9690000  27.3810000  75.7200000
  18.1530000  26.3380000  80.5500000  21.3370000  27.5810000  82.1210000
  19.5580000  26.7230000  82.4710000  22.8080000  29.4160000  73.6600000
  23.7920000  29.6360000  75.4240000  20.6070000  28.3750000  73.8710000
  18.3510000  26.2410000  81.8860000  17.3430000  26.0140000  80.1750000
  19.6790000  26.6580000  83.4110000  23.8040000  30.0020000  72.7970000
  21.5830000  28.9400000  73.0610000  19.8060000  28.0570000  73.4700000
  17.6820000  25.8490000  82.4350000  23.6060000  30.0990000  71.4610000
  24.6140000  30.3260000  73.1720000  21.4190000  29.0660000  71.6380000
  22.3980000  29.6170000  70.8770000  24.2740000  30.4910000  70.9120000
  20.6200000  28.7590000  71.2270000  22.2770000  29.6820000  69.9360000
  21.9290000  35.7630000  78.0850000  22.0850000  35.6430000  79.4760000
  22.9100000  36.3200000  77.2540000  20.6980000  35.2750000  77.4800000
  22.8870000  35.9610000  79.8770000  21.1090000  35.0780000  80.2860000
  23.7240000  36.6370000  77.6270000  22.7310000  36.4220000  75.8670000
  19.7060000  34.7030000  78.3130000  20.5190000  35.3770000  76.0930000
  19.8850000  34.6020000  79.6870000  21.2730000  34.9530000  81.7090000
  23.7230000  36.9940000  75.0350000  21.5000000  35.9340000  75.2620000
  18.9010000  34.3820000  77.9230000  19.7050000  35.0600000  75.7200000
  18.8890000  34.0160000  80.5500000  22.0730000  35.2590000  82.1210000
  20.2940000  34.4020000  82.4710000  23.5440000  37.0950000  73.6600000
  24.5280000  37.3150000  75.4240000  21.3430000  36.0540000  73.8710000
  19.0870000  33.9190000  81.8860000  18.0790000  33.6920000  80.1750000
  20.4150000  34.3370000  83.4110000  24.5400000  37.6810000  72.7970000
  22.3190000  36.6190000  73.0610000  20.5420000  35.7360000  73.4700000
  18.4180000  33.5270000  82.4350000  24.3420000  37.7780000  71.4610000
  25.3500000  38.0050000  73.1720000  22.1560000  36.7440000  71.6380000
  23.1350000  37.2950000  70.8770000  25.0100000  38.1700000  70.9120000
  21.3560000  36.4380000  71.2270000  23.0130000  37.3600000  69.9360000
  20.7320000  33.7820000  33.0920000  20.5760000  33.9020000  31.7000000
  19.7510000  33.2250000  33.9230000  21.9630000  34.2700000  33.6960000
  19.7740000  33.5840000  31.3000000  21.5520000  34.4670000  30.8900000
  18.9380000  32.9080000  33.5500000  19.9300000  33.1230000  35.3100000
  22.9550000  34.8420000  32.8640000  22.1420000  34.1680000  35.0840000
  22.7760000  34.9430000  31.4890000  21.3880000  34.5920000  29.4680000
  18.9390000  32.5510000  36.1420000  21.1610000  33.6110000  35.9140000
  23.7600000  35.1630000  33.2530000  22.9560000  34.4850000  35.4560000
  23.7720000  35.5290000  30.6260000  20.5880000  34.2860000  29.0560000
  22.3670000  35.1430000  28.7060000  19.1170000  32.4500000  37.5170000
  18.1330000  32.2300000  35.7530000  21.3180000  33.4920000  37.3060000
  23.5740000  35.6260000  29.2910000  24.5820000  35.8530000  31.0020000
  22.2460000  35.2080000  27.7660000  18.1210000  31.8640000  38.3800000
  20.3420000  32.9260000  38.1160000  22.1190000  33.8090000  37.7070000
  24.2430000  36.0180000  28.7410000  18.3190000  31.7670000  39.7150000
  17.3110000  31.5410000  38.0050000  20.5060000  32.8010000  39.5380000
  19.5270000  32.2500000  40.3000000  17.6510000  31.3760000  40.2650000
  21.3050000  33.1070000  39.9500000  19.6480000  32.1850000  41.2410000
  20.6600000  30.3340000  21.8580000  20.8160000  30.2150000  23.2490000
  21.6410000  30.8910000  21.0270000  19.4290000  29.8460000  21.2530000
  21.6180000  30.5320000  23.6500000  19.8410000  29.6490000  24.0590000
  22.4550000  31.2090000  21.3990000  21.4620000  30.9930000  19.6390000
  18.4370000  29.2750000  22.0850000  19.2500000  29.9480000  19.8660000
  18.6160000  29.1740000  23.4600000  20.0040000  29.5240000  25.4810000
  22.4540000  31.5650000  18.8070000  20.2310000  30.5050000  19.0350000
  17.6320000  28.9530000  21.6960000  18.4360000  29.6310000  19.4930000
  17.6200000  28.5880000  24.3230000  20.8040000  29.8310000  25.8930000
  19.0250000  28.9730000  26.2430000  22.2750000  31.6660000  17.4320000
  23.2590000  31.8860000  19.1970000  20.0750000  30.6250000  17.6430000
  17.8180000  28.4900000  25.6590000  16.8100000  28.2640000  23.9480000
  19.1470000  28.9080000  27.1840000  23.2710000  32.2520000  16.5690000
  21.0500000  31.1900000  16.8340000  19.2730000  30.3070000  17.2430000
  17.1490000  28.0990000  26.2080000  23.0730000  32.3490000  15.2340000
  24.0810000  32.5760000  16.9450000  20.8870000  31.3150000  15.4110000
  21.8660000  31.8670000  14.6490000  23.7410000  32.7410000  14.6840000
  20.0870000  31.0090000  14.9990000  21.7440000  31.9310000  13.7090000
  22.1640000  40.1650000  64.0280000  22.3200000  40.0450000  65.4200000
  23.1450000  40.7220000  63.1970000  20.9330000  39.6770000  63.4240000
  23.1220000  40.3630000  65.8200000  21.3440000  39.4800000  66.2290000
  23.9580000  41.0390000  63.5700000  22.9660000  40.8240000  61.8100000
  19.9410000  39.1050000  64.2560000  20.7540000  39.7790000  62.0360000
  20.1200000  39.0040000  65.6300000  21.5080000  39.3550000  67.6520000
  23.9570000  41.3950000  60.9780000  21.7350000  40.3360000  61.2050000
  19.1360000  38.7840000  63.8660000  19.9400000  39.4610000  61.6640000
  19.1240000  38.4180000  66.4940000  22.3080000  39.6610000  68.0640000
  20.5290000  38.8040000  68.4140000  23.7790000  41.4970000  59.6030000
  24.7630000  41.7170000  61.3670000  21.5780000  40.4550000  59.8140000
  19.3220000  38.3210000  67.8290000  18.3140000  38.0940000  66.1180000
  20.6500000  38.7390000  69.3540000  24.7750000  42.0820000  58.7400000
  22.5540000  41.0210000  59.0040000  20.7770000  40.1380000  59.4130000
  18.6530000  37.9290000  68.3790000  24.5770000  42.1800000  57.4040000
  25.5850000  42.4060000  59.1150000  22.3900000  41.1460000  57.5820000
  23.3690000  41.6970000  56.8200000  25.2450000  42.5710000  56.8550000
  21.5910000  40.8400000  57.1700000  23.2480000  41.7620000  55.8790000
  20.9670000  38.1840000  19.0350000  20.8110000  38.3030000  17.6430000
  19.9860000  37.6270000  19.8660000  22.1980000  38.6720000  19.6390000
  20.0090000  37.9860000  17.2430000  21.7870000  38.8690000  16.8340000
  19.1720000  37.3100000  19.4930000  20.1650000  37.5250000  21.2530000
  23.1900000  39.2440000  18.8070000  22.3770000  38.5700000  21.0270000
  23.0110000  39.3450000  17.4320000  21.6230000  38.9940000  15.4110000
  19.1730000  36.9530000  22.0850000  21.3960000  38.0130000  21.8580000
  23.9950000  39.5650000  19.1970000  23.1910000  38.8870000  21.3990000
  24.0070000  39.9310000  16.5690000  20.8230000  38.6880000  14.9990000
  22.6020000  39.5450000  14.6490000  19.3520000  36.8520000  23.4600000
  18.3680000  36.6320000  21.6960000  21.5530000  37.8930000  23.2490000
  23.8090000  40.0280000  15.2340000  24.8170000  40.2550000  16.9450000
  22.4810000  39.6100000  13.7090000  18.3560000  36.2660000  24.3230000
  20.5770000  37.3280000  24.0590000  22.3540000  38.2110000  23.6500000
  24.4780000  40.4190000  14.6840000  18.5540000  36.1690000  25.6590000
  17.5460000  35.9420000  23.9480000  20.7400000  37.2030000  25.4810000
  19.7610000  36.6520000  26.2430000  17.8860000  35.7770000  26.2080000
  21.5400000  37.5090000  25.8930000  19.8830000  36.5870000  27.1840000
  21.4680000  41.4610000  33.0920000  21.3120000  41.5800000  31.7000000
  20.4870000  40.9040000  33.9230000  22.6990000  41.9490000  33.6960000
  20.5110000  41.2630000  31.3000000  22.2880000  42.1460000  30.8900000
  19.6740000  40.5860000  33.5500000  20.6670000  40.8020000  35.3100000
  23.6910000  42.5200000  32.8640000  22.8790000  41.8470000  35.0840000
  23.5120000  42.6210000  31.4890000  22.1240000  42.2710000  29.4680000
  19.6750000  40.2300000  36.1420000  21.8970000  41.2900000  35.9140000
  24.4960000  42.8420000  33.2530000  23.6920000  42.1640000  35.4560000
  24.5080000  43.2070000  30.6260000  21.3240000  41.9640000  29.0560000
  23.1030000  42.8220000  28.7060000  19.8530000  40.1290000  37.5170000
  18.8690000  39.9090000  35.7530000  22.0540000  41.1700000  37.3060000
  24.3100000  43.3050000  29.2910000  25.3180000  43.5310000  31.0020000
  22.9820000  42.8870000  27.7660000  18.8570000  39.5430000  38.3800000
  21.0780000  40.6050000  38.1160000  22.8550000  41.4880000  37.7070000
  24.9790000  43.6960000  28.7410000  19.0550000  39.4460000  39.7150000
  18.0480000  39.2190000  38.0050000  21.2420000  40.4800000  39.5380000
  20.2630000  39.9290000  40.3000000  18.3870000  39.0540000  40.2650000
  22.0420000  40.7860000  39.9500000  20.3840000  39.8640000  41.2410000
  21.9700000  44.7380000  47.1490000  21.8130000  44.8570000  45.7570000
  20.9880000  44.1800000  47.9790000  23.2000000  45.2260000  47.7530000
  21.0120000  44.5400000  45.3560000  22.7890000  45.4220000  44.9470000
  20.1750000  43.8630000  47.6070000  21.1680000  44.0780000  49.3670000
  24.1920000  45.7970000  46.9210000  23.3800000  45.1240000  49.1400000
  24.0140000  45.8980000  45.5460000  22.6250000  45.5480000  43.5250000
  20.1760000  43.5070000  50.1990000  22.3990000  44.5660000  49.9710000
  24.9980000  46.1180000  47.3100000  24.1930000  45.4410000  49.5130000
  25.0100000  46.4840000  44.6830000  21.8250000  45.2410000  43.1130000
  23.6040000  46.0990000  42.7630000  20.3550000  43.4060000  51.5740000
  19.3710000  43.1860000  49.8100000  22.5550000  44.4470000  51.3630000
  24.8120000  46.5810000  43.3480000  25.8190000  46.8080000  45.0580000
  23.4830000  46.1640000  41.8220000  19.3590000  42.8200000  52.4370000
  21.5790000  43.8820000  52.1730000  23.3560000  44.7650000  51.7630000
  25.4800000  46.9730000  42.7980000  19.5570000  42.7230000  53.7720000
  18.5490000  42.4960000  52.0610000  21.7430000  43.7560000  53.5950000
  20.7640000  43.2050000  54.3570000  18.8880000  42.3310000  54.3220000
  22.5430000  44.0630000  54.0070000  20.8850000  43.1400000  55.2970000
  23.9020000  54.3970000  92.1420000  24.0590000  54.2770000  93.5330000
  24.8840000  54.9540000  91.3110000  22.6720000  53.9090000  91.5370000
  24.8600000  54.5950000  93.9340000  23.0830000  53.7120000  94.3430000
  25.6970000  55.2710000  91.6830000  24.7040000  55.0560000  89.9230000
  21.6800000  53.3370000  92.3690000  22.4920000  54.0110000  90.1500000
  21.8580000  53.2360000  93.7440000  23.2470000  53.5870000  95.7650000
  25.6960000  55.6280000  89.0910000  23.4730000  54.5680000  89.3190000
  20.8740000  53.0160000  91.9800000  21.6790000  53.6940000  89.7770000
  20.8620000  52.6500000  94.6070000  24.0470000  53.8930000  96.1770000
  22.2680000  53.0360000  96.5270000  25.5170000  55.7290000  87.7170000
  26.5010000  55.9490000  89.4810000  23.3170000  54.6880000  87.9270000
  21.0600000  52.5530000  95.9430000  20.0530000  52.3260000  94.2320000
  22.3890000  52.9710000  97.4680000  26.5130000  56.3150000  86.8530000
  24.2930000  55.2530000  87.1180000  22.5160000  54.3700000  87.5270000
  20.3920000  52.1620000  96.4920000  26.3150000  56.4120000  85.5180000
  27.3230000  56.6390000  87.2290000  24.1290000  55.3780000  85.6950000
  25.1080000  55.9290000  84.9330000  26.9840000  56.8040000  84.9680000
  23.3290000  55.0720000  85.2830000  24.9870000  55.9940000  83.9930000
  22.9000000  47.8430000  64.0280000  23.0560000  47.7240000  65.4200000
  23.8810000  48.4010000  63.1970000  21.6690000  47.3550000  63.4240000
  23.8580000  48.0410000  65.8200000  22.0800000  47.1590000  66.2290000
  24.6950000  48.7180000  63.5700000  23.7020000  48.5030000  61.8100000
  20.6770000  46.7840000  64.2560000  21.4900000  47.4570000  62.0360000
  20.8560000  46.6830000  65.6300000  22.2440000  47.0330000  67.6520000
  24.6940000  49.0740000  60.9780000  22.4710000  48.0150000  61.2050000
  19.8720000  46.4630000  63.8660000  20.6760000  47.1400000  61.6640000
  19.8600000  46.0970000  66.4940000  23.0440000  47.3400000  68.0640000
  21.2650000  46.4820000  68.4140000  24.5150000  49.1750000  59.6030000
  25.4990000  49.3950000  61.3670000  22.3140000  48.1340000  59.8140000
  20.0580000  46.0000000  67.8290000  19.0500000  45.7730000  66.1180000
  21.3860000  46.4170000  69.3540000  25.5110000  49.7610000  58.7400000
  23.2900000  48.6990000  59.0040000  21.5130000  47.8160000  59.4130000
  19.3890000  45.6080000  68.3790000  25.3130000  49.8580000  57.4040000
  26.3210000  50.0850000  59.1150000  23.1270000  48.8250000  57.5820000
  24.1060000  49.3760000  56.8200000  25.9810000  50.2500000  56.8550000
  22.3270000  48.5180000  57.1700000  23.9840000  49.4400000  55.8790000
  23.7080000  58.9700000  75.2620000  23.5520000  59.0890000  73.8710000
  22.7270000  58.4130000  76.0930000  24.9390000  59.4580000  75.8670000
  22.7500000  58.7720000  73.4700000  24.5280000  59.6550000  73.0610000
  21.9140000  58.0950000  75.7200000  22.9060000  58.3110000  77.4800000
  25.9310000  60.0300000  75.0350000  25.1180000  59.3560000  77.2540000
  25.7520000  60.1310000  73.6600000  24.3640000  59.7800000  71.6380000
  21.9150000  57.7390000  78.3130000  24.1370000  58.7990000  78.0850000
  26.7360000  60.3510000  75.4240000  25.9320000  59.6730000  77.6270000
  26.7480000  60.7160000  72.7970000  23.5640000  59.4740000  71.2270000
  25.3430000  60.3310000  70.8770000  22.0930000  57.6380000  79.6870000
  21.1090000  57.4180000  77.9230000  24.2940000  58.6790000  79.4760000
  26.5500000  60.8140000  71.4610000  27.5580000  61.0400000  73.1720000
  25.2220000  60.3960000  69.9360000  21.0970000  57.0520000  80.5500000
  23.3180000  58.1140000  80.2860000  25.0950000  58.9970000  79.8770000
  27.2190000  61.2050000  70.9120000  21.2950000  56.9550000  81.8860000
  20.2870000  56.7280000  80.1750000  23.4820000  57.9890000  81.7090000
  22.5030000  57.4380000  82.4710000  20.6270000  56.5630000  82.4350000
  24.2810000  58.2950000  82.1210000  22.6240000  57.3730000  83.4110000
  24.4440000  66.6490000  75.2620000  24.2880000  66.7680000  73.8710000
  23.4630000  66.0910000  76.0930000  25.6750000  67.1370000  75.8670000
  23.4870000  66.4500000  73.4700000  25.2640000  67.3330000  73.0610000
  22.6500000  65.7740000  75.7200000  23.6430000  65.9890000  77.4800000
  26.6670000  67.7080000  75.0350000  25.8550000  67.0350000  77.2540000
  26.4880000  67.8090000  73.6600000  25.1000000  67.4590000  71.6380000
  22.6510000  65.4180000  78.3130000  24.8730000  66.4770000  78.0850000
  27.4720000  68.0290000  75.4240000  26.6680000  67.3520000  77.6270000
  27.4840000  68.3950000  72.7970000  24.3000000  67.1520000  71.2270000
  26.0790000  68.0100000  70.8770000  22.8290000  65.3170000  79.6870000
  21.8450000  65.0970000  77.9230000  25.0300000  66.3580000  79.4760000
  27.2860000  68.4920000  71.4610000  28.2940000  68.7190000  73.1720000
  25.9580000  68.0750000  69.9360000  21.8330000  64.7310000  80.5500000
  24.0540000  65.7930000  80.2860000  25.8310000  66.6750000  79.8770000
  27.9550000  68.8840000  70.9120000  22.0310000  64.6340000  81.8860000
  21.0240000  64.4070000  80.1750000  24.2180000  65.6670000  81.7090000
  23.2390000  65.1160000  82.4710000  21.3630000  64.2420000  82.4350000
  25.0180000  65.9740000  82.1210000  23.3600000  65.0510000  83.4110000
  24.3720000  63.2000000  64.0280000  24.5290000  63.0810000  65.4200000
  25.3530000  63.7580000  63.1970000  23.1410000  62.7120000  63.4240000
  25.3300000  63.3990000  65.8200000  23.5530000  62.5160000  66.2290000
  26.1670000  64.0750000  63.5700000  25.1740000  63.8600000  61.8100000
  22.1490000  62.1410000  64.2560000  22.9620000  62.8140000  62.0360000
  22.3280000  62.0400000  65.6300000  23.7160000  62.3900000  67.6520000
  26.1660000  64.4310000  60.9780000  23.9430000  63.3720000  61.2050000
  21.3440000  61.8200000  63.8660000  22.1480000  62.4970000  61.6640000
  21.3320000  61.4540000  66.4940000  24.5160000  62.6970000  68.0640000
  22.7380000  61.8390000  68.4140000  25.9870000  64.5320000  59.6030000
  26.9710000  64.7520000  61.3670000  23.7870000  63.4910000  59.8140000
  21.5300000  61.3570000  67.8290000  20.5220000  61.1300000  66.1180000
  22.8590000  61.7740000  69.3540000  26.9830000  65.1180000  58.7400000
  24.7630000  64.0560000  59.0040000  22.9850000  63.1740000  59.4130000
  20.8620000  60.9650000  68.3790000  26.7850000  65.2150000  57.4040000
  27.7930000  65.4420000  59.1150000  24.5990000  64.1820000  57.5820000
  25.5780000  64.7330000  56.8200000  27.4540000  65.6070000  56.8550000
  23.7990000  63.8750000  57.1700000  25.4570000  64.7980000  55.8790000
  25.3750000  69.7540000  92.1420000  25.5310000  69.6350000  93.5330000
  26.3560000  70.3110000  91.3110000  24.1440000  69.2660000  91.5370000
  26.3320000  69.9520000  93.9340000  24.5550000  69.0690000  94.3430000
  27.1690000  70.6290000  91.6830000  26.1760000  70.4130000  89.9230000
  23.1520000  68.6950000  92.3690000  23.9640000  69.3680000  90.1500000
  23.3310000  68.5930000  93.7440000  24.7190000  68.9440000  95.7650000
  27.1680000  70.9850000  89.0910000  24.9460000  69.9250000  89.3190000
  22.3470000  68.3730000  91.9800000  23.1510000  69.0510000  89.7770000
  22.3350000  68.0080000  94.6070000  25.5190000  69.2510000  96.1770000
  23.7400000  68.3930000  96.5270000  26.9900000  71.0860000  87.7170000
  27.9740000  71.3060000  89.4810000  24.7890000  70.0450000  87.9270000
  22.5330000  67.9100000  95.9430000  21.5250000  67.6840000  94.2320000
  23.8610000  68.3280000  97.4680000  27.9860000  71.6720000  86.8530000
  25.7650000  70.6100000  87.1180000  23.9880000  69.7270000  87.5270000
  21.8640000  67.5190000  96.4920000  27.7880000  71.7690000  85.5180000
  28.7950000  71.9960000  87.2290000  25.6010000  70.7350000  85.6950000
  26.5800000  71.2860000  84.9330000  28.4560000  72.1610000  84.9680000
  24.8010000  70.4290000  85.2830000  26.4590000  71.3510000  83.9930000
  24.1060000  64.3250000  35.9140000  24.2620000  64.2060000  37.3060000
  25.0870000  64.8830000  35.0840000  22.8750000  63.8370000  35.3100000
  25.0640000  64.5240000  37.7070000  23.2860000  63.6410000  38.1160000
  25.9000000  65.2000000  35.4560000  24.9080000  64.9850000  33.6960000
  21.8830000  63.2660000  36.1420000  22.6960000  63.9390000  33.9230000
  22.0620000  63.1650000  37.5170000  23.4500000  63.5150000  39.5380000
  25.8990000  65.5560000  32.8640000  23.6770000  64.4970000  33.0920000
  21.0780000  62.9450000  35.7530000  21.8820000  63.6220000  33.5500000
  21.0660000  62.5790000  38.3800000  24.2500000  63.8220000  39.9500000
  22.4710000  62.9640000  40.3000000  25.7210000  65.6570000  31.4890000
  26.7050000  65.8770000  33.2530000  23.5200000  64.6160000  31.7000000
  21.2640000  62.4820000  39.7150000  20.2560000  62.2550000  38.0050000
  22.5920000  62.8990000  41.2410000  26.7170000  66.2430000  30.6260000
  24.4960000  65.1810000  30.8900000  22.7190000  64.2980000  31.3000000
  20.5950000  62.0900000  40.2650000  26.5190000  66.3400000  29.2910000
  27.5270000  66.5670000  31.0020000  24.3320000  65.3070000  29.4680000
  25.3110000  65.8580000  28.7060000  27.1870000  66.7320000  28.7410000
  23.5330000  65.0000000  29.0560000  25.1900000  65.9230000  27.7660000
  25.1800000  74.3270000  75.2620000  25.0240000  74.4470000  73.8710000
  24.1990000  73.7700000  76.0930000  26.4110000  74.8150000  75.8670000
  24.2230000  74.1290000  73.4700000  26.0000000  75.0120000  73.0610000
  23.3860000  73.4530000  75.7200000  24.3790000  73.6680000  77.4800000
  27.4030000  75.3870000  75.0350000  26.5910000  74.7130000  77.2540000
  27.2250000  75.4880000  73.6600000  25.8360000  75.1370000  71.6380000
  23.3870000  73.0960000  78.3130000  25.6100000  74.1560000  78.0850000
  28.2090000  75.7080000  75.4240000  27.4040000  75.0300000  77.6270000
  28.2210000  76.0740000  72.7970000  25.0360000  74.8310000  71.2270000
  26.8150000  75.6880000  70.8770000  23.5650000  72.9950000  79.6870000
  22.5810000  72.7750000  77.9230000  25.7660000  74.0360000  79.4760000
  28.0230000  76.1710000  71.4610000  29.0300000  76.3980000  73.1720000
  26.6940000  75.7530000  69.9360000  22.5690000  72.4090000  80.5500000
  24.7900000  73.4710000  80.2860000  26.5670000  74.3540000  79.8770000
  28.6910000  76.5630000  70.9120000  22.7670000  72.3120000  81.8860000
  21.7600000  72.0850000  80.1750000  24.9540000  73.3460000  81.7090000
  23.9750000  72.7950000  82.4710000  22.0990000  71.9200000  82.4350000
  25.7540000  73.6520000  82.1210000  24.0960000  72.7300000  83.4110000
  24.3410000  68.7270000  21.8580000  24.4970000  68.6080000  23.2490000
  25.3220000  69.2840000  21.0270000  23.1100000  68.2390000  21.2530000
  25.2980000  68.9250000  23.6500000  23.5210000  68.0420000  24.0590000
  26.1350000  69.6020000  21.3990000  25.1420000  69.3860000  19.6390000
  22.1180000  67.6680000  22.0850000  22.9300000  68.3410000  19.8660000
  22.2970000  67.5670000  23.4600000  23.6850000  67.9170000  25.4810000
  26.1340000  69.9580000  18.8070000  23.9120000  68.8980000  19.0350000
  21.3130000  67.3460000  21.6960000  22.1170000  68.0240000  19.4930000
  21.3010000  66.9810000  24.3230000  24.4850000  68.2240000  25.8930000
  22.7060000  67.3660000  26.2430000  25.9560000  70.0590000  17.4320000
  26.9400000  70.2790000  19.1970000  23.7550000  69.0180000  17.6430000
  21.4990000  66.8830000  25.6590000  20.4910000  66.6570000  23.9480000
  22.8270000  67.3010000  27.1840000  26.9520000  70.6450000  16.5690000
  24.7310000  69.5830000  16.8340000  22.9540000  68.7000000  17.2430000
  20.8300000  66.4920000  26.2080000  26.7540000  70.7420000  15.2340000
  27.7610000  70.9690000  16.9450000  24.5670000  69.7080000  15.4110000
  25.5460000  70.2590000  14.6490000  27.4220000  71.1340000  14.6840000
  23.7670000  69.4020000  14.9990000  25.4250000  70.3240000  13.7090000
  24.8420000  72.0040000  35.9140000  24.9980000  71.8850000  37.3060000
  25.8230000  72.5610000  35.0840000  23.6110000  71.5160000  35.3100000
  25.8000000  72.2020000  37.7070000  24.0220000  71.3190000  38.1160000
  26.6370000  72.8780000  35.4560000  25.6440000  72.6630000  33.6960000
  22.6190000  70.9440000  36.1420000  23.4320000  71.6180000  33.9230000
  22.7980000  70.8430000  37.5170000  24.1860000  71.1940000  39.5380000
  26.6360000  73.2350000  32.8640000  24.4130000  72.1750000  33.0920000
  21.8140000  70.6230000  35.7530000  22.6180000  71.3010000  33.5500000
  21.8020000  70.2570000  38.3800000  24.9860000  71.5000000  39.9500000
  23.2070000  70.6430000  40.3000000  26.4570000  73.3360000  31.4890000
  27.4410000  73.5560000  33.2530000  24.2560000  72.2950000  31.7000000
  22.0000000  70.1600000  39.7150000  20.9920000  69.9330000  38.0050000
  23.3280000  70.5780000  41.2410000  27.4530000  73.9220000  30.6260000
  25.2320000  72.8600000  30.8900000  23.4550000  71.9770000  31.3000000
  21.3310000  69.7690000  40.2650000  27.2550000  74.0190000  29.2910000
  28.2630000  74.2460000  31.0020000  25.0690000  72.9850000  29.4680000
  26.0470000  73.5360000  28.7060000  27.9230000  74.4110000  28.7410000
  24.2690000  72.6790000  29.0560000  25.9260000  73.6010000  27.7660000
  24.9140000  75.4520000  47.1490000  24.7580000  75.5720000  45.7570000
  23.9330000  74.8950000  47.9790000  26.1450000  75.9400000  47.7530000
  23.9560000  75.2540000  45.3560000  25.7340000  76.1370000  44.9470000
  23.1190000  74.5780000  47.6070000  24.1120000  74.7930000  49.3670000
  27.1370000  76.5120000  46.9210000  26.3240000  75.8380000  49.1400000
  26.9580000  76.6130000  45.5460000  25.5700000  76.2620000  43.5250000
  23.1200000  74.2210000  50.1990000  25.3430000  75.2810000  49.9710000
  27.9420000  76.8330000  47.3100000  27.1380000  76.1550000  49.5130000
  27.9540000  77.1990000  44.6830000  24.7700000  75.9560000  43.1130000
  26.5490000  76.8130000  42.7630000  23.2990000  74.1200000  51.5740000
  22.3150000  73.9000000  49.8100000  25.5000000  75.1610000  51.3630000
  27.7560000  77.2960000  43.3480000  28.7640000  77.5230000  45.0580000
  26.4280000  76.8780000  41.8220000  22.3030000  73.5340000  52.4370000
  24.5240000  74.5960000  52.1730000  26.3010000  75.4790000  51.7630000
  28.4250000  77.6870000  42.7980000  22.5010000  73.4370000  53.7720000
  21.4930000  73.2100000  52.0610000  24.6870000  74.4710000  53.5950000
  23.7080000  73.9200000  54.3570000  21.8330000  73.0450000  54.3220000
  25.4870000  74.7770000  54.0070000  23.8300000  73.8550000  55.2970000
  25.9170000  82.0060000  75.2620000  25.7600000  82.1250000  73.8710000
  24.9350000  81.4480000  76.0930000  27.1470000  82.4940000  75.8670000
  24.9590000  81.8080000  73.4700000  26.7360000  82.6900000  73.0610000
  24.1220000  81.1310000  75.7200000  25.1150000  81.3460000  77.4800000
  28.1390000  83.0650000  75.0350000  27.3270000  82.3920000  77.2540000
  27.9610000  83.1660000  73.6600000  26.5720000  82.8160000  71.6380000
  24.1230000  80.7750000  78.3130000  26.3460000  81.8340000  78.0850000
  28.9450000  83.3860000  75.4240000  28.1400000  82.7090000  77.6270000
  28.9570000  83.7520000  72.7970000  25.7720000  82.5090000  71.2270000
  27.5510000  83.3670000  70.8770000  24.3020000  80.6740000  79.6870000
  23.3180000  80.4540000  77.9230000  26.5020000  81.7150000  79.4760000
  28.7590000  83.8490000  71.4610000  29.7660000  84.0760000  73.1720000
  27.4300000  83.4320000  69.9360000  23.3060000  80.0880000  80.5500000
  25.5260000  81.1500000  80.2860000  27.3030000  82.0330000  79.8770000
  29.4270000  84.2410000  70.9120000  23.5040000  79.9910000  81.8860000
  22.4960000  79.7640000  80.1750000  25.6900000  81.0240000  81.7090000
  24.7110000  80.4730000  82.4710000  22.8350000  79.5990000  82.4350000
  26.4900000  81.3310000  82.1210000  24.8320000  80.4090000  83.4110000
  26.4180000  85.2830000  89.3190000  26.2610000  85.4020000  87.9270000
  25.4370000  84.7250000  90.1500000  27.6490000  85.7710000  89.9230000
  25.4600000  85.0840000  87.5270000  27.2370000  85.9670000  87.1180000
  24.6230000  84.4080000  89.7770000  25.6160000  84.6230000  91.5370000
  28.6410000  86.3420000  89.0910000  27.8280000  85.6690000  91.3110000
  28.4620000  86.4430000  87.7170000  27.0740000  86.0930000  85.6950000
  24.6240000  84.0520000  92.3690000  26.8470000  85.1110000  92.1420000
  29.4460000  86.6630000  89.4810000  28.6420000  85.9860000  91.6830000
  29.4580000  87.0290000  86.8530000  26.2740000  85.7860000  85.2830000
  28.0530000  86.6440000  84.9330000  24.8030000  83.9510000  93.7440000
  23.8190000  83.7310000  91.9800000  27.0030000  84.9920000  93.5330000
  29.2600000  87.1260000  85.5180000  30.2680000  87.3530000  87.2290000
  27.9310000  86.7090000  83.9930000  23.8070000  83.3650000  94.6070000
  26.0270000  84.4270000  94.3430000  27.8050000  85.3090000  93.9340000
  29.9280000  87.5180000  84.9680000  24.0050000  83.2680000  95.9430000
  22.9970000  83.0410000  94.2320000  26.1910000  84.3010000  95.7650000
  25.2120000  83.7500000  96.5270000  23.3360000  82.8760000  96.4920000
  26.9910000  84.6080000  96.1770000  25.3330000  83.6850000  97.4680000
  25.4150000  78.7290000  61.2050000  25.2590000  78.8480000  59.8140000
  24.4340000  78.1720000  62.0360000  26.6460000  79.2170000  61.8100000
  24.4580000  78.5310000  59.4130000  26.2350000  79.4140000  59.0040000
  23.6210000  77.8540000  61.6640000  24.6140000  78.0700000  63.4240000
  27.6380000  79.7880000  60.9780000  26.8260000  79.1150000  63.1970000
  27.4590000  79.8900000  59.6030000  26.0710000  79.5390000  57.5820000
  23.6220000  77.4980000  64.2560000  25.8440000  78.5580000  64.0280000
  28.4430000  80.1100000  61.3670000  27.6390000  79.4320000  63.5700000
  28.4550000  80.4750000  58.7400000  25.2710000  79.2320000  57.1700000
  27.0500000  80.0900000  56.8200000  23.8000000  77.3970000  65.6300000
  22.8160000  77.1770000  63.8660000  26.0010000  78.4380000  65.4200000
  28.2570000  80.5730000  57.4040000  29.2650000  80.7990000  59.1150000
  26.9290000  80.1550000  55.8790000  22.8040000  76.8110000  66.4940000
  25.0250000  77.8730000  66.2290000  26.8020000  78.7560000  65.8200000
  28.9260000  80.9640000  56.8550000  23.0020000  76.7140000  67.8290000
  21.9950000  76.4870000  66.1180000  25.1890000  77.7480000  67.6520000
  24.2100000  77.1970000  68.4140000  22.3340000  76.3220000  68.3790000
  25.9890000  78.0540000  68.0640000  24.3310000  77.1320000  69.3540000
  25.8130000  84.0840000  21.8580000  25.9690000  83.9650000  23.2490000
  26.7940000  84.6420000  21.0270000  24.5820000  83.5960000  21.2530000
  26.7710000  84.2830000  23.6500000  24.9930000  83.4000000  24.0590000
  27.6070000  84.9590000  21.3990000  26.6150000  84.7440000  19.6390000
  23.5900000  83.0250000  22.0850000  24.4030000  83.6980000  19.8660000
  23.7690000  82.9240000  23.4600000  25.1570000  83.2740000  25.4810000
  27.6070000  85.3150000  18.8070000  25.3840000  84.2560000  19.0350000
  22.7850000  82.7040000  21.6960000  23.5890000  83.3810000  19.4930000
  22.7730000  82.3380000  24.3230000  25.9570000  83.5810000  25.8930000
  24.1780000  82.7230000  26.2430000  27.4280000  85.4160000  17.4320000
  28.4120000  85.6360000  19.1970000  25.2270000  84.3750000  17.6430000
  22.9710000  82.2410000  25.6590000  21.9630000  82.0140000  23.9480000
  24.2990000  82.6580000  27.1840000  28.4240000  86.0020000  16.5690000
  26.2030000  84.9400000  16.8340000  24.4260000  84.0570000  17.2430000
  22.3020000  81.8490000  26.2080000  28.2260000  86.0990000  15.2340000
  29.2340000  86.3260000  16.9450000  26.0390000  85.0660000  15.4110000
  27.0180000  85.6170000  14.6490000  28.8940000  86.4910000  14.6840000
  25.2400000  84.7590000  14.9990000  26.8970000  85.6820000  13.7090000
  25.8850000  87.5320000  33.0920000  25.7290000  87.6520000  31.7000000
  24.9040000  86.9750000  33.9230000  27.1160000  88.0200000  33.6960000
  24.9270000  87.3340000  31.3000000  26.7050000  88.2170000  30.8900000
  24.0900000  86.6580000  33.5500000  25.0830000  86.8730000  35.3100000
  28.1080000  88.5920000  32.8640000  27.2950000  87.9180000  35.0840000
  27.9290000  88.6930000  31.4890000  26.5410000  88.3420000  29.4680000
  24.0910000  86.3020000  36.1420000  26.3140000  87.3610000  35.9140000
  28.9130000  88.9130000  33.2530000  28.1090000  88.2360000  35.4560000
  28.9250000  89.2790000  30.6260000  25.7410000  88.0360000  29.0560000
  27.5200000  88.8940000  28.7060000  24.2700000  86.2010000  37.5170000
  23.2860000  85.9800000  35.7530000  26.4710000  87.2420000  37.3060000
  28.7270000  89.3760000  29.2910000  29.7350000  89.6030000  31.0020000
  27.3990000  88.9580000  27.7660000  23.2740000  85.6150000  38.3800000
  25.4950000  86.6760000  38.1160000  27.2720000  87.5590000  37.7070000
  29.3960000  89.7680000  28.7410000  23.4720000  85.5170000  39.7150000
  22.4640000  85.2910000  38.0050000  25.6580000  86.5510000  39.5380000
  24.6790000  86.0000000  40.3000000  22.8040000  85.1260000  40.2650000
  26.4580000  86.8580000  39.9500000  24.8010000  85.9350000  41.2410000
  27.3890000  97.3630000  75.2620000  27.2320000  97.4820000  73.8710000
  26.4080000  96.8060000  76.0930000  28.6200000  97.8510000  75.8670000
  26.4310000  97.1650000  73.4700000  28.2080000  98.0480000  73.0610000
  25.5940000  96.4880000  75.7200000  26.5870000  96.7040000  77.4800000
  29.6120000  98.4220000  75.0350000  28.7990000  97.7490000  77.2540000
  29.4330000  98.5240000  73.6600000  28.0450000  98.1730000  71.6380000
  25.5950000  96.1320000  78.3130000  27.8180000  97.1920000  78.0850000
  30.4170000  98.7440000  75.4240000  29.6130000  98.0660000  77.6270000
  30.4290000  99.1090000  72.7970000  27.2450000  97.8670000  71.2270000
  29.0230000  98.7240000  70.8770000  25.7740000  96.0310000  79.6870000
  24.7900000  95.8110000  77.9230000  27.9740000  97.0720000  79.4760000
  30.2310000  99.2070000  71.4610000  31.2390000  99.4330000  73.1720000
  28.9020000  98.7890000  69.9360000  24.7780000  95.4450000  80.5500000
  26.9980000  96.5070000  80.2860000  28.7760000  97.3900000  79.8770000
  30.8990000  99.5980000  70.9120000  24.9760000  95.3480000  81.8860000
  23.9680000  95.1210000  80.1750000  27.1620000  96.3820000  81.7090000
  26.1830000  95.8310000  82.4710000  24.3070000  94.9560000  82.4350000
  27.9620000  96.6880000  82.1210000  26.3040000  95.7660000  83.4110000
  27.8900000 100.6400000  89.3190000  27.7340000 100.7590000  87.9270000
  26.9090000 100.0820000  90.1500000  29.1210000 101.1280000  89.9230000
  26.9320000 100.4420000  87.5270000  28.7100000 101.3240000  87.1180000
  26.0950000  99.7650000  89.7770000  27.0880000  99.9810000  91.5370000
  30.1130000 101.6990000  89.0910000  29.3000000 101.0260000  91.3110000
  29.9340000 101.8000000  87.7170000  28.5460000 101.4500000  85.6950000
  26.0960000  99.4090000  92.3690000  28.3190000 100.4680000  92.1420000
  30.9180000 102.0200000  89.4810000  30.1140000 101.3430000  91.6830000
  30.9300000 102.3860000  86.8530000  27.7460000 101.1430000  85.2830000
  29.5250000 102.0010000  84.9330000  26.2750000  99.3080000  93.7440000
  25.2910000  99.0880000  91.9800000  28.4760000 100.3490000  93.5330000
  30.7320000 102.4830000  85.5180000  31.7400000 102.7100000  87.2290000
  29.4040000 102.0660000  83.9930000  25.2790000  98.7220000  94.6070000
  27.5000000  99.7840000  94.3430000  29.2770000 100.6670000  93.9340000
  31.4010000 102.8750000  84.9680000  25.4770000  98.6250000  95.9430000
  24.4690000  98.3980000  94.2320000  27.6630000  99.6590000  95.7650000
  26.6850000  99.1070000  96.5270000  24.8090000  98.2330000  96.4920000
  28.4630000  99.9650000  96.1770000  26.8060000  99.0430000  97.4680000
  21.5230000  11.9250000  19.2220000  21.3530000  12.6020000  17.9980000
  20.5480000  11.9310000  20.2260000  22.7670000  11.1960000  19.4540000
  20.5520000  13.0900000  17.8460000  22.3260000  12.5750000  17.0080000
  19.7340000  12.4030000  20.0950000  20.7180000  11.2500000  21.4390000
  23.7520000  11.1910000  18.4350000  22.9380000  10.5160000  20.6670000
  23.5560000  11.8510000  17.2340000  22.1540000  13.2350000  15.7540000
  19.7340000  11.2550000  22.4580000  21.9620000  10.5210000  21.6710000
  24.5660000  10.7240000  18.5800000  23.7520000  10.0440000  20.7980000
  24.5400000  11.8340000  16.1970000  21.3510000  13.7160000  15.5880000
  23.1110000  13.1920000  14.7950000  19.9290000  10.5960000  23.6580000
  18.9200000  11.7230000  22.3130000  22.1330000   9.8450000  22.8950000
  24.3290000  12.4770000  15.0250000  25.3550000  11.3650000  16.3330000
  22.9730000  13.6370000  13.9670000  18.9450000  10.6130000  24.6960000
  21.1600000   9.8720000  23.8850000  22.9340000   9.3570000  23.0470000
  24.9960000  12.4540000  14.3480000  19.1560000   9.9690000  25.8680000
  18.1310000  11.0820000  24.5590000  21.3320000   9.2120000  25.1380000
  20.3740000   9.2550000  26.0970000  18.4900000   9.9930000  26.5440000
  22.1350000   8.7310000  25.3040000  20.5130000   8.8100000  26.9250000
  22.0250000  15.2020000  33.2790000  21.8540000  15.8790000  32.0540000
  21.0490000  15.2070000  34.2820000  23.2690000  14.4730000  33.5110000
  21.0530000  16.3660000  31.9030000  22.8270000  15.8520000  31.0650000
  20.2350000  15.6800000  34.1520000  21.2190000  14.5270000  35.4960000
  24.2530000  14.4680000  32.4920000  23.4390000  13.7930000  34.7240000
  24.0570000  15.1270000  31.2910000  22.6550000  16.5120000  29.8110000
  20.2350000  14.5320000  36.5150000  22.4640000  13.7980000  35.7270000
  25.0670000  14.0000000  32.6360000  24.2530000  13.3200000  34.8550000
  25.0420000  15.1110000  30.2540000  21.8520000  16.9930000  29.6450000
  23.6130000  16.4690000  28.8520000  20.4310000  13.8730000  37.7150000
  19.4210000  15.0000000  36.3700000  22.6340000  13.1210000  36.9520000
  24.8300000  15.7540000  29.0810000  25.8560000  14.6420000  30.3900000
  23.4740000  16.9140000  28.0240000  19.4470000  13.8900000  38.7520000
  21.6610000  13.1490000  37.9410000  23.4350000  12.6340000  37.1040000
  25.4970000  15.7310000  28.4050000  19.6580000  13.2460000  39.9250000
  18.6320000  14.3590000  38.6160000  21.8330000  12.4890000  39.1950000
  20.8760000  12.5320000  40.1540000  18.9910000  13.2690000  40.6010000
  22.6360000  12.0080000  39.3610000  21.0140000  12.0870000  40.9820000
  23.0270000  21.7560000  61.3920000  22.8570000  22.4330000  60.1680000
  22.0510000  21.7610000  62.3960000  24.2710000  21.0270000  61.6240000
  22.0560000  22.9200000  60.0160000  23.8290000  22.4050000  59.1780000
  21.2380000  22.2330000  62.2650000  22.2220000  21.0810000  63.6090000
  25.2560000  21.0220000  60.6050000  24.4420000  20.3470000  62.8370000
  25.0600000  21.6810000  59.4050000  23.6570000  23.0650000  57.9250000
  21.2380000  21.0860000  64.6280000  23.4660000  20.3520000  63.8410000
  26.0700000  20.5540000  60.7500000  25.2550000  19.8740000  62.9680000
  26.0440000  21.6640000  58.3670000  22.8550000  23.5460000  57.7590000
  24.6150000  23.0220000  56.9660000  21.4330000  20.4270000  65.8290000
  20.4230000  21.5530000  64.4830000  23.6370000  19.6750000  65.0650000
  25.8330000  22.3080000  57.1950000  26.8590000  21.1950000  58.5040000
  24.4770000  23.4670000  56.1380000  20.4490000  20.4430000  66.8660000
  22.6640000  19.7020000  66.0550000  24.4380000  19.1880000  65.2170000
  26.5000000  22.2840000  56.5190000  20.6600000  19.8000000  68.0380000
  19.6340000  20.9120000  66.7300000  22.8360000  19.0420000  67.3090000
  21.8780000  19.0850000  68.2680000  19.9940000  19.8230000  68.7150000
  23.6380000  18.5610000  67.4750000  22.0170000  18.6400000  69.0960000
  24.0300000  28.3100000  89.5060000  23.8590000  28.9860000  88.2820000
  23.0540000  28.3150000  90.5100000  25.2740000  27.5800000  89.7380000
  23.0580000  29.4740000  88.1300000  24.8320000  28.9590000  87.2920000
  22.2400000  28.7870000  90.3790000  23.2250000  27.6350000  91.7230000
  26.2580000  27.5750000  88.7190000  25.4440000  26.9000000  90.9510000
  26.0630000  28.2350000  87.5180000  24.6600000  29.6190000  86.0380000
  22.2400000  27.6390000  92.7420000  24.4690000  26.9050000  91.9550000
  27.0720000  27.1080000  88.8640000  26.2580000  26.4280000  91.0820000
  27.0470000  28.2180000  86.4810000  23.8570000  30.1000000  85.8720000
  25.6180000  29.5760000  85.0800000  22.4360000  26.9800000  93.9420000
  21.4260000  28.1070000  92.5970000  24.6390000  26.2290000  93.1790000
  26.8360000  28.8610000  85.3090000  27.8610000  27.7490000  86.6170000
  25.4790000  30.0210000  84.2520000  21.4520000  26.9970000  94.9800000
  23.6660000  26.2560000  94.1690000  25.4400000  25.7410000  93.3310000
  27.5020000  28.8380000  84.6320000  21.6630000  26.3540000  96.1520000
  20.6370000  27.4660000  94.8430000  23.8380000  25.5960000  95.4230000
  22.8810000  25.6390000  96.3810000  20.9960000  26.3770000  96.8280000
  24.6410000  25.1150000  95.5880000  23.0190000  25.1940000  97.2090000
  22.5260000  18.4790000  47.3360000  22.3550000  19.1560000  46.1110000
  21.5500000  18.4840000  48.3390000  23.7700000  17.7500000  47.5670000
  21.5540000  19.6430000  45.9590000  23.3280000  19.1290000  45.1220000
  20.7360000  18.9570000  48.2080000  21.7210000  17.8040000  49.5520000
  24.7540000  17.7450000  46.5480000  23.9410000  17.0700000  48.7810000
  24.5590000  18.4040000  45.3480000  23.1560000  19.7880000  43.8680000
  20.7360000  17.8090000  50.5710000  22.9650000  17.0750000  49.7840000
  25.5690000  17.2770000  46.6930000  24.7540000  16.5970000  48.9110000
  25.5430000  18.3870000  44.3110000  22.3540000  20.2700000  43.7020000
  24.1140000  19.7450000  42.9090000  20.9320000  17.1500000  51.7720000
  19.9220000  18.2770000  50.4270000  23.1350000  16.3980000  51.0090000
  25.3320000  19.0310000  43.1380000  26.3580000  17.9190000  44.4470000
  23.9750000  20.1900000  42.0810000  19.9480000  17.1670000  52.8090000
  22.1630000  16.4250000  51.9980000  23.9360000  15.9110000  51.1600000
  25.9980000  19.0080000  42.4620000  20.1590000  16.5230000  53.9820000
  19.1330000  17.6350000  52.6730000  22.3340000  15.7660000  53.2520000
  21.3770000  15.8090000  54.2110000  19.4920000  16.5460000  54.6580000
  23.1370000  15.2840000  53.4180000  21.5150000  15.3630000  55.0390000
  22.2590000  19.6040000  19.2220000  22.0890000  20.2810000  17.9980000
  21.2840000  19.6090000  20.2260000  23.5040000  18.8750000  19.4540000
  21.2880000  20.7680000  17.8460000  23.0620000  20.2530000  17.0080000
  20.4700000  20.0820000  20.0950000  21.4540000  18.9290000  21.4390000
  24.4880000  18.8700000  18.4350000  23.6740000  18.1950000  20.6670000
  24.2920000  19.5290000  17.2340000  22.8900000  20.9130000  15.7540000
  20.4700000  18.9340000  22.4580000  22.6980000  18.2000000  21.6710000
  25.3020000  18.4020000  18.5800000  24.4880000  17.7220000  20.7980000
  25.2770000  19.5120000  16.1970000  22.0870000  21.3940000  15.5880000
  23.8470000  20.8700000  14.7950000  20.6660000  18.2750000  23.6580000
  19.6560000  19.4020000  22.3130000  22.8690000  17.5230000  22.8950000
  25.0650000  20.1560000  15.0250000  26.0910000  19.0430000  16.3330000
  23.7090000  21.3150000  13.9670000  19.6810000  18.2910000  24.6960000
  21.8960000  17.5500000  23.8850000  23.6700000  17.0360000  23.0470000
  25.7320000  20.1330000  14.3480000  19.8930000  17.6480000  25.8680000
  18.8670000  18.7600000  24.5590000  22.0680000  16.8900000  25.1380000
  21.1100000  16.9340000  26.0970000  19.2260000  17.6710000  26.5440000
  22.8710000  16.4090000  25.3040000  21.2490000  16.4880000  26.9250000
  22.7610000  22.8810000  33.2790000  22.5900000  23.5580000  32.0540000
  21.7850000  22.8860000  34.2820000  24.0050000  22.1520000  33.5110000
  21.7890000  24.0450000  31.9030000  23.5630000  23.5300000  31.0650000
  20.9710000  23.3580000  34.1520000  21.9560000  22.2060000  35.4960000
  24.9890000  22.1470000  32.4920000  24.1750000  21.4720000  34.7240000
  24.7940000  22.8060000  31.2910000  23.3910000  24.1900000  29.8110000
  20.9710000  22.2110000  36.5150000  23.2000000  21.4770000  35.7270000
  25.8040000  21.6790000  32.6360000  24.9890000  20.9990000  34.8550000
  25.7780000  22.7890000  30.2540000  22.5880000  24.6710000  29.6450000
  24.3490000  24.1470000  28.8520000  21.1670000  21.5510000  37.7150000
  20.1570000  22.6780000  36.3700000  23.3700000  20.8000000  36.9520000
  25.5670000  23.4330000  29.0810000  26.5930000  22.3200000  30.3900000
  24.2100000  24.5920000  28.0240000  20.1830000  21.5680000  38.7520000
  22.3980000  20.8270000  37.9410000  24.1710000  20.3120000  37.1040000
  26.2330000  23.4090000  28.4050000  20.3940000  20.9250000  39.9250000
  19.3680000  22.0370000  38.6160000  22.5690000  20.1670000  39.1950000
  21.6120000  20.2100000  40.1540000  19.7270000  20.9480000  40.6010000
  23.3720000  19.6860000  39.3610000  21.7500000  19.7650000  40.9820000
  21.7580000  16.3270000   5.1650000  21.5880000  17.0040000   3.9410000
  20.7820000  16.3320000   6.1690000  23.0020000  15.5980000   5.3970000
  20.7870000  17.4910000   3.7890000  22.5600000  16.9770000   2.9510000
  19.9690000  16.8050000   6.0380000  20.9530000  15.6520000   7.3820000
  23.9870000  15.5930000   4.3780000  23.1730000  14.9180000   6.6100000
  23.7910000  16.2520000   3.1770000  22.3890000  17.6360000   1.6970000
  19.9690000  15.6570000   8.4010000  22.1970000  14.9230000   7.6140000
  24.8010000  15.1250000   4.5230000  23.9870000  14.4450000   6.7410000
  24.7750000  16.2350000   2.1400000  21.5860000  18.1180000   1.5310000
  23.3460000  17.5930000   0.7390000  20.1640000  14.9980000   9.6010000
  19.1540000  16.1250000   8.2560000  22.3680000  14.2460000   8.8380000
  24.5640000  16.8790000   0.9680000  25.5900000  15.7670000   2.2760000
  23.2080000  18.0390000  -0.0890000  19.1800000  15.0150000  10.6390000
  21.3950000  14.2740000   9.8280000  23.1690000  13.7590000   8.9900000
  25.2310000  16.8560000   0.2920000  19.3910000  14.3710000  11.8110000
  18.3650000  15.4840000  10.5020000  21.5670000  13.6140000  11.0820000
  20.6090000  13.6570000  12.0400000  18.7250000  14.3940000  12.4870000
  22.3690000  13.1320000  11.2470000  20.7480000  13.2120000  12.8680000
  23.2620000  26.1580000  47.3360000  23.0920000  26.8340000  46.1110000
  22.2860000  26.1630000  48.3390000  24.5060000  25.4280000  47.5670000
  22.2900000  27.3220000  45.9590000  24.0640000  26.8070000  45.1220000
  21.4730000  26.6350000  48.2080000  22.4570000  25.4830000  49.5520000
  25.4900000  25.4240000  46.5480000  24.6770000  24.7480000  48.7810000
  25.2950000  26.0830000  45.3480000  23.8920000  27.4670000  43.8680000
  21.4720000  25.4880000  50.5710000  23.7010000  24.7540000  49.7840000
  26.3050000  24.9560000  46.6930000  25.4900000  24.2760000  48.9110000
  26.2790000  26.0660000  44.3110000  23.0900000  27.9480000  43.7020000
  24.8500000  27.4240000  42.9090000  21.6680000  24.8280000  51.7720000
  20.6580000  25.9550000  50.4270000  23.8710000  24.0770000  51.0090000
  26.0680000  26.7100000  43.1380000  27.0940000  25.5970000  44.4470000
  24.7120000  27.8690000  42.0810000  20.6840000  24.8450000  52.8090000
  22.8990000  24.1040000  51.9980000  24.6730000  23.5890000  51.1600000
  26.7340000  26.6860000  42.4620000  20.8950000  24.2020000  53.9820000
  19.8690000  25.3140000  52.6730000  23.0710000  23.4440000  53.2520000
  22.1130000  23.4870000  54.2110000  20.2290000  24.2250000  54.6580000
  23.8730000  22.9630000  53.4180000  22.2510000  23.0420000  55.0390000
  23.7630000  29.4340000  61.3920000  23.5930000  30.1110000  60.1680000
  22.7880000  29.4400000  62.3960000  25.0070000  28.7050000  61.6240000
  22.7920000  30.5990000  60.0160000  24.5650000  30.0840000  59.1780000
  21.9740000  29.9120000  62.2650000  22.9580000  28.7590000  63.6090000
  25.9920000  28.7000000  60.6050000  25.1780000  28.0250000  62.8370000
  25.7960000  29.3600000  59.4050000  24.3940000  30.7440000  57.9250000
  21.9740000  28.7640000  64.6280000  24.2020000  28.0300000  63.8410000
  26.8060000  28.2330000  60.7500000  25.9920000  27.5530000  62.9680000
  26.7800000  29.3430000  58.3670000  23.5910000  31.2250000  57.7590000
  25.3510000  30.7010000  56.9660000  22.1690000  28.1050000  65.8290000
  21.1590000  29.2320000  64.4830000  24.3730000  27.3540000  65.0650000
  26.5690000  29.9860000  57.1950000  27.5950000  28.8740000  58.5040000
  25.2130000  31.1460000  56.1380000  21.1850000  28.1220000  66.8660000
  23.4000000  27.3810000  66.0550000  25.1740000  26.8660000  65.2170000
  27.2360000  29.9630000  56.5190000  21.3960000  27.4780000  68.0380000
  20.3700000  28.5910000  66.7300000  23.5720000  26.7210000  67.3090000
  22.6140000  26.7640000  68.2680000  20.7300000  27.5020000  68.7150000
  24.3740000  26.2400000  67.4750000  22.7530000  26.3190000  69.0960000
  24.7660000  35.9880000  89.5060000  24.5950000  36.6650000  88.2820000
  23.7900000  35.9930000  90.5100000  26.0100000  35.2590000  89.7380000
  23.7940000  37.1520000  88.1300000  25.5680000  36.6380000  87.2920000
  22.9760000  36.4660000  90.3790000  23.9610000  35.3130000  91.7230000
  26.9940000  35.2540000  88.7190000  26.1800000  34.5790000  90.9510000
  26.7990000  35.9130000  87.5180000  25.3960000  37.2970000  86.0380000
  22.9760000  35.3180000  92.7420000  25.2050000  34.5840000  91.9550000
  27.8090000  34.7860000  88.8640000  26.9940000  34.1060000  91.0820000
  27.7830000  35.8960000  86.4810000  24.5940000  37.7790000  85.8720000
  26.3540000  37.2540000  85.0800000  23.1720000  34.6590000  93.9420000
  22.1620000  35.7860000  92.5970000  25.3750000  33.9070000  93.1790000
  27.5720000  36.5400000  85.3090000  28.5980000  35.4280000  86.6170000
  26.2150000  37.7000000  84.2520000  22.1880000  34.6760000  94.9800000
  24.4030000  33.9340000  94.1690000  26.1760000  33.4200000  93.3310000
  28.2380000  36.5170000  84.6320000  22.3990000  34.0320000  96.1520000
  21.3730000  35.1450000  94.8430000  24.5740000  33.2750000  95.4230000
  23.6170000  33.3180000  96.3810000  21.7320000  34.0550000  96.8280000
  25.3770000  32.7930000  95.5880000  23.7550000  32.8730000  97.2090000
  23.4970000  30.5590000  33.2790000  23.3260000  31.2360000  32.0540000
  22.5210000  30.5650000  34.2820000  24.7410000  29.8300000  33.5110000
  22.5250000  31.7240000  31.9030000  24.2990000  31.2090000  31.0650000
  21.7070000  31.0370000  34.1520000  22.6920000  29.8840000  35.4960000
  25.7250000  29.8250000  32.4920000  24.9120000  29.1500000  34.7240000
  25.5300000  30.4850000  31.2910000  24.1270000  31.8690000  29.8110000
  21.7070000  29.8890000  36.5150000  23.9360000  29.1550000  35.7270000
  26.5400000  29.3580000  32.6360000  25.7250000  28.6780000  34.8550000
  26.5140000  30.4680000  30.2540000  23.3250000  32.3500000  29.6450000
  25.0850000  31.8260000  28.8520000  21.9030000  29.2300000  37.7150000
  20.8930000  30.3570000  36.3700000  24.1060000  28.4790000  36.9520000
  26.3030000  31.1110000  29.0810000  27.3290000  29.9990000  30.3900000
  24.9460000  32.2710000  28.0240000  20.9190000  29.2470000  38.7520000
  23.1340000  28.5060000  37.9410000  24.9070000  27.9910000  37.1040000
  26.9690000  31.0880000  28.4050000  21.1300000  28.6030000  39.9250000
  20.1040000  29.7160000  38.6160000  23.3050000  27.8460000  39.1950000
  22.3480000  27.8890000  40.1540000  20.4630000  28.6270000  40.6010000
  24.1080000  27.3650000  39.3610000  22.4860000  27.4440000  40.9820000
  22.9960000  27.2830000  19.2220000  22.8250000  27.9590000  17.9980000
  22.0200000  27.2880000  20.2260000  24.2400000  26.5530000  19.4540000
  22.0240000  28.4470000  17.8460000  23.7980000  27.9320000  17.0080000
  21.2060000  27.7600000  20.0950000  22.1900000  26.6080000  21.4390000
  25.2240000  26.5480000  18.4350000  24.4100000  25.8730000  20.6670000
  25.0280000  27.2080000  17.2340000  23.6260000  28.5920000  15.7540000
  21.2060000  26.6120000  22.4580000  23.4350000  25.8780000  21.6710000
  26.0380000  26.0810000  18.5800000  25.2240000  25.4010000  20.7980000
  26.0130000  27.1910000  16.1970000  22.8230000  29.0730000  15.5880000
  24.5840000  28.5490000  14.7950000  21.4020000  25.9530000  23.6580000
  20.3920000  27.0800000  22.3130000  23.6050000  25.2020000  22.8950000
  25.8010000  27.8340000  15.0250000  26.8270000  26.7220000  16.3330000
  24.4450000  28.9940000  13.9670000  20.4170000  25.9700000  24.6960000
  22.6320000  25.2290000  23.8850000  24.4060000  24.7140000  23.0470000
  26.4680000  27.8110000  14.3480000  20.6290000  25.3270000  25.8680000
  19.6030000  26.4390000  24.5590000  22.8040000  24.5690000  25.1380000
  21.8470000  24.6120000  26.0970000  19.9620000  25.3500000  26.5440000
  23.6070000  24.0880000  25.3040000  21.9850000  24.1670000  26.9250000
  23.9980000  33.8360000  47.3360000  23.8280000  34.5130000  46.1110000
  23.0220000  33.8410000  48.3390000  25.2420000  33.1070000  47.5670000
  23.0270000  35.0000000  45.9590000  24.8000000  34.4860000  45.1220000
  22.2090000  34.3140000  48.2080000  23.1930000  33.1610000  49.5520000
  26.2270000  33.1020000  46.5480000  25.4130000  32.4270000  48.7810000
  26.0310000  33.7610000  45.3480000  24.6280000  35.1460000  43.8680000
  22.2090000  33.1660000  50.5710000  24.4370000  32.4320000  49.7840000
  27.0410000  32.6340000  46.6930000  26.2260000  31.9540000  48.9110000
  27.0150000  33.7450000  44.3110000  23.8260000  35.6270000  43.7020000
  25.5860000  35.1030000  42.9090000  22.4040000  32.5070000  51.7720000
  21.3940000  33.6340000  50.4270000  24.6070000  31.7550000  51.0090000
  26.8040000  34.3880000  43.1380000  27.8300000  33.2760000  44.4470000
  25.4480000  35.5480000  42.0810000  21.4200000  32.5240000  52.8090000
  23.6350000  31.7830000  51.9980000  25.4090000  31.2680000  51.1600000
  27.4710000  34.3650000  42.4620000  21.6310000  31.8800000  53.9820000
  20.6050000  32.9930000  52.6730000  23.8070000  31.1230000  53.2520000
  22.8490000  31.1660000  54.2110000  20.9650000  31.9030000  54.6580000
  24.6090000  30.6420000  53.4180000  22.9870000  30.7210000  55.0390000
  24.4990000  37.1130000  61.3920000  24.3290000  37.7900000  60.1680000
  23.5240000  37.1180000  62.3960000  25.7430000  36.3840000  61.6240000
  23.5280000  38.2770000  60.0160000  25.3020000  37.7630000  59.1780000
  22.7100000  37.5910000  62.2650000  23.6940000  36.4380000  63.6090000
  26.7280000  36.3790000  60.6050000  25.9140000  35.7040000  62.8370000
  26.5320000  37.0380000  59.4050000  25.1300000  38.4220000  57.9250000
  22.7100000  36.4430000  64.6280000  24.9380000  35.7090000  63.8410000
  27.5420000  35.9110000  60.7500000  26.7280000  35.2310000  62.9680000
  27.5160000  37.0210000  58.3670000  24.3270000  38.9040000  57.7590000
  26.0870000  38.3790000  56.9660000  22.9050000  35.7840000  65.8290000
  21.8960000  36.9110000  64.4830000  25.1090000  35.0320000  65.0650000
  27.3050000  37.6650000  57.1950000  28.3310000  36.5530000  58.5040000
  25.9490000  38.8240000  56.1380000  21.9210000  35.8010000  66.8660000
  24.1360000  35.0590000  66.0550000  25.9100000  34.5450000  65.2170000
  27.9720000  37.6420000  56.5190000  22.1320000  35.1570000  68.0380000
  21.1070000  36.2690000  66.7300000  24.3080000  34.4000000  67.3090000
  23.3500000  34.4430000  68.2680000  21.4660000  35.1800000  68.7150000
  25.1110000  33.9180000  67.4750000  23.4890000  33.9980000  69.0960000
  25.9410000  42.2630000  91.9550000  26.1110000  41.5860000  93.1790000
  26.9170000  42.2570000  90.9510000  24.6970000  42.9920000  91.7230000
  26.9120000  41.0980000  93.3310000  25.1390000  41.6130000  94.1690000
  27.7300000  41.7850000  91.0820000  26.7460000  42.9380000  89.7380000
  23.7120000  42.9970000  92.7420000  24.5260000  43.6720000  90.5100000
  23.9080000  42.3370000  93.9420000  25.3110000  40.9530000  95.4230000
  27.7300000  42.9330000  88.7190000  25.5020000  43.6670000  89.5060000
  22.8980000  43.4640000  92.5970000  23.7130000  44.1440000  90.3790000
  22.9240000  42.3540000  94.9800000  26.1130000  40.4720000  95.5880000
  24.3530000  40.9960000  96.3810000  27.5350000  43.5920000  87.5180000
  28.5450000  42.4650000  88.8640000  25.3310000  44.3430000  88.2820000
  23.1350000  41.7110000  96.1520000  22.1090000  42.8230000  94.8430000
  24.4910000  40.5510000  97.2090000  28.5190000  43.5750000  86.4810000
  26.3040000  44.3160000  87.2920000  24.5300000  44.8310000  88.1300000
  22.4680000  41.7340000  96.8280000  28.3080000  44.2190000  85.3090000
  29.3340000  43.1060000  86.6170000  26.1320000  44.9760000  86.0380000
  27.0900000  44.9330000  85.0800000  28.9740000  44.1950000  84.6320000
  25.3300000  45.4570000  85.8720000  26.9520000  45.3780000  84.2520000
  24.1710000  33.5570000  21.6710000  24.3410000  32.8800000  22.8950000
  25.1460000  33.5520000  20.6670000  22.9270000  34.2860000  21.4390000
  25.1420000  32.3930000  23.0470000  23.3690000  32.9080000  23.8850000
  25.9600000  33.0790000  20.7980000  24.9760000  34.2320000  19.4540000
  21.9420000  34.2910000  22.4580000  22.7560000  34.9660000  20.2260000
  22.1380000  33.6320000  23.6580000  23.5400000  32.2480000  25.1380000
  25.9600000  34.2270000  18.4350000  23.7320000  34.9610000  19.2220000
  21.1280000  34.7590000  22.3130000  21.9420000  35.4390000  20.0950000
  21.1540000  33.6490000  24.6960000  24.3430000  31.7670000  25.3040000
  22.5830000  32.2910000  26.0970000  25.7650000  34.8860000  17.2340000
  26.7740000  33.7590000  18.5800000  23.5610000  35.6380000  17.9980000
  21.3650000  33.0050000  25.8680000  20.3390000  34.1180000  24.5590000
  22.7210000  31.8460000  26.9250000  26.7490000  34.8690000  16.1970000
  24.5340000  35.6110000  17.0080000  22.7600000  36.1250000  17.8460000
  20.6980000  33.0280000  26.5440000  26.5380000  35.5130000  15.0250000
  27.5630000  34.4010000  16.3330000  24.3620000  36.2710000  15.7540000
  25.3200000  36.2270000  14.7950000  27.2040000  35.4900000  14.3480000
  23.5590000  36.7520000  15.5880000  25.1810000  36.6730000  13.9670000
  24.2330000  38.2380000  33.2790000  24.0630000  38.9150000  32.0540000
  23.2570000  38.2430000  34.2820000  25.4770000  37.5090000  33.5110000
  23.2610000  39.4020000  31.9030000  25.0350000  38.8870000  31.0650000
  22.4440000  38.7160000  34.1520000  23.4280000  37.5630000  35.4960000
  26.4610000  37.5040000  32.4920000  25.6480000  36.8290000  34.7240000
  26.2660000  38.1630000  31.2910000  24.8630000  39.5470000  29.8110000
  22.4430000  37.5680000  36.5150000  24.6720000  36.8340000  35.7270000
  27.2760000  37.0360000  32.6360000  26.4610000  36.3560000  34.8550000
  27.2500000  38.1460000  30.2540000  24.0610000  40.0290000  29.6450000
  25.8210000  39.5040000  28.8520000  22.6390000  36.9090000  37.7150000
  21.6290000  38.0360000  36.3700000  24.8420000  36.1570000  36.9520000
  27.0390000  38.7900000  29.0810000  28.0650000  37.6770000  30.3900000
  25.6830000  39.9490000  28.0240000  21.6550000  36.9260000  38.7520000
  23.8700000  36.1840000  37.9410000  25.6440000  35.6700000  37.1040000
  27.7050000  38.7670000  28.4050000  21.8660000  36.2820000  39.9250000
  20.8400000  37.3940000  38.6160000  24.0420000  35.5250000  39.1950000
  23.0840000  35.5680000  40.1540000  21.2000000  36.3050000  40.6010000
  24.8440000  35.0430000  39.3610000  23.2220000  35.1220000  40.9820000
  25.6740000  43.3880000  63.8410000  25.8450000  42.7110000  65.0650000
  26.6500000  43.3820000  62.8370000  24.4300000  44.1170000  63.6090000
  26.6460000  42.2230000  65.2170000  24.8720000  42.7380000  66.0550000
  27.4640000  42.9100000  62.9680000  26.4800000  44.0620000  61.6240000
  23.4460000  44.1220000  64.6280000  24.2600000  44.7970000  62.3960000
  23.6420000  43.4620000  65.8290000  25.0440000  42.0780000  67.3090000
  27.4640000  44.0580000  60.6050000  25.2360000  44.7920000  61.3920000
  22.6320000  44.5890000  64.4830000  23.4460000  45.2690000  62.2650000
  22.6570000  43.4790000  66.8660000  25.8470000  41.5970000  67.4750000
  24.0860000  42.1210000  68.2680000  27.2680000  44.7170000  59.4050000
  28.2780000  43.5900000  60.7500000  25.0650000  45.4680000  60.1680000
  22.8690000  42.8360000  68.0380000  21.8430000  43.9480000  66.7300000
  24.2250000  41.6760000  69.0960000  28.2530000  44.7000000  58.3670000
  26.0380000  45.4410000  59.1780000  24.2640000  45.9560000  60.0160000
  22.2020000  42.8590000  68.7150000  28.0410000  45.3440000  57.1950000
  29.0670000  44.2310000  58.5040000  25.8660000  46.1010000  57.9250000
  26.8240000  46.0580000  56.9660000  28.7080000  45.3200000  56.5190000
  25.0630000  46.5820000  57.7590000  26.6850000  46.5030000  56.1380000
  25.7370000  48.0680000  75.4490000  25.5660000  48.7450000  74.2250000
  24.7610000  48.0740000  76.4530000  26.9810000  47.3390000  75.6810000
  24.7650000  49.2330000  74.0730000  26.5390000  48.7180000  73.2350000
  23.9470000  48.5460000  76.3220000  24.9320000  47.3940000  77.6660000
  27.9650000  47.3340000  74.6620000  27.1510000  46.6590000  76.8940000
  27.7700000  47.9940000  73.4620000  26.3670000  49.3780000  71.9810000
  23.9470000  47.3980000  78.6850000  26.1760000  46.6640000  77.8980000
  28.7800000  46.8670000  74.8070000  27.9650000  46.1870000  77.0250000
  28.7540000  47.9770000  72.4240000  25.5640000  49.8590000  71.8150000
  27.3250000  49.3350000  71.0230000  24.1430000  46.7390000  79.8860000
  23.1330000  47.8660000  78.5400000  26.3460000  45.9880000  79.1220000
  28.5430000  48.6200000  71.2520000  29.5690000  47.5080000  72.5610000
  27.1860000  49.7800000  70.1950000  23.1590000  46.7560000  80.9230000
  25.3740000  46.0150000  80.1120000  27.1470000  45.5000000  79.2740000
  29.2090000  48.5970000  70.5760000  23.3700000  46.1120000  82.0950000
  22.3440000  47.2250000  80.7870000  25.5450000  45.3550000  81.3660000
  24.5880000  45.3980000  82.3240000  22.7030000  46.1360000  82.7710000
  26.3480000  44.8740000  81.5320000  24.7260000  44.9530000  83.1520000
  24.4680000  42.6400000  19.2220000  24.2970000  43.3160000  17.9980000
  23.4920000  42.6450000  20.2260000  25.7120000  41.9110000  19.4540000
  23.4960000  43.8040000  17.8460000  25.2700000  43.2890000  17.0080000
  22.6780000  43.1170000  20.0950000  23.6630000  41.9650000  21.4390000
  26.6960000  41.9060000  18.4350000  25.8830000  41.2300000  20.6670000
  26.5010000  42.5650000  17.2340000  25.0980000  43.9490000  15.7540000
  22.6780000  41.9700000  22.4580000  24.9070000  41.2360000  21.6710000
  27.5110000  41.4380000  18.5800000  26.6960000  40.7580000  20.7980000
  27.4850000  42.5480000  16.1970000  24.2960000  44.4300000  15.5880000
  26.0560000  43.9060000  14.7950000  22.8740000  41.3100000  23.6580000
  21.8640000  42.4370000  22.3130000  25.0770000  40.5590000  22.8950000
  27.2740000  43.1920000  15.0250000  28.3000000  42.0790000  16.3330000
  25.9170000  44.3510000  13.9670000  21.8900000  41.3270000  24.6960000
  24.1050000  40.5860000  23.8850000  25.8780000  40.0710000  23.0470000
  27.9400000  43.1680000  14.3480000  22.1010000  40.6840000  25.8680000
  21.0750000  41.7960000  24.5590000  24.2760000  39.9260000  25.1380000
  23.3190000  39.9690000  26.0970000  21.4340000  40.7070000  26.5440000
  25.0790000  39.4450000  25.3040000  23.4570000  39.5240000  26.9250000
  25.4700000  49.1930000  47.3360000  25.3000000  49.8700000  46.1110000
  24.4950000  49.1990000  48.3390000  26.7140000  48.4640000  47.5670000
  24.4990000  50.3580000  45.9590000  26.2730000  49.8430000  45.1220000
  23.6810000  49.6710000  48.2080000  24.6650000  48.5180000  49.5520000
  27.6990000  48.4590000  46.5480000  26.8850000  47.7840000  48.7810000
  27.5030000  49.1190000  45.3480000  26.1010000  50.5030000  43.8680000
  23.6810000  48.5230000  50.5710000  25.9090000  47.7890000  49.7840000
  28.5130000  47.9920000  46.6930000  27.6990000  47.3120000  48.9110000
  28.4870000  49.1020000  44.3110000  25.2980000  50.9840000  43.7020000
  27.0580000  50.4600000  42.9090000  23.8760000  47.8640000  51.7720000
  22.8670000  48.9910000  50.4270000  26.0800000  47.1130000  51.0090000
  28.2760000  49.7450000  43.1380000  29.3020000  48.6330000  44.4470000
  26.9200000  50.9050000  42.0810000  22.8920000  47.8810000  52.8090000
  25.1070000  47.1400000  51.9980000  26.8810000  46.6250000  51.1600000
  28.9430000  49.7220000  42.4620000  23.1030000  47.2370000  53.9820000
  22.0780000  48.3500000  52.6730000  25.2790000  46.4800000  53.2520000
  24.3210000  46.5230000  54.2110000  22.4370000  47.2610000  54.6580000
  26.0820000  45.9990000  53.4180000  24.4600000  46.0780000  55.0390000
  26.9740000  59.0240000  89.5060000  26.8040000  59.7010000  88.2820000
  25.9980000  59.0290000  90.5100000  28.2180000  58.2950000  89.7380000
  26.0030000  60.1880000  88.1300000  27.7760000  59.6730000  87.2920000
  25.1850000  59.5020000  90.3790000  26.1690000  58.3490000  91.7230000
  29.2030000  58.2900000  88.7190000  28.3890000  57.6150000  90.9510000
  29.0070000  58.9490000  87.5180000  27.6040000  60.3330000  86.0380000
  25.1850000  58.3540000  92.7420000  27.4130000  57.6200000  91.9550000
  30.0170000  57.8220000  88.8640000  29.2020000  57.1420000  91.0820000
  29.9910000  58.9320000  86.4810000  26.8020000  60.8140000  85.8720000
  28.5620000  60.2900000  85.0800000  25.3800000  57.6950000  93.9420000
  24.3700000  58.8220000  92.5970000  27.5840000  56.9430000  93.1790000
  29.7800000  59.5760000  85.3090000  30.8060000  58.4630000  86.6170000
  28.4240000  60.7350000  84.2520000  24.3960000  57.7110000  94.9800000
  26.6110000  56.9700000  94.1690000  28.3850000  56.4560000  93.3310000
  30.4470000  59.5530000  84.6320000  24.6070000  57.0680000  96.1520000
  23.5810000  58.1800000  94.8430000  26.7830000  56.3100000  95.4230000
  25.8250000  56.3530000  96.3810000  23.9410000  57.0910000  96.8280000
  27.5850000  55.8290000  95.5880000  25.9630000  55.9080000  97.2090000
  25.9720000  52.4700000  61.3920000  25.8010000  53.1470000  60.1680000
  24.9960000  52.4750000  62.3960000  27.2160000  51.7410000  61.6240000
  25.0000000  53.6340000  60.0160000  26.7740000  53.1200000  59.1780000
  24.1820000  52.9480000  62.2650000  25.1660000  51.7950000  63.6090000
  28.2000000  51.7360000  60.6050000  27.3860000  51.0610000  62.8370000
  28.0040000  52.3950000  59.4050000  26.6020000  53.7800000  57.9250000
  24.1820000  51.8000000  64.6280000  26.4110000  51.0660000  63.8410000
  29.0140000  51.2690000  60.7500000  28.2000000  50.5890000  62.9680000
  28.9890000  52.3790000  58.3670000  25.7990000  54.2610000  57.7590000
  27.5600000  53.7370000  56.9660000  24.3780000  51.1410000  65.8290000
  23.3680000  52.2680000  64.4830000  26.5810000  50.3890000  65.0650000
  28.7770000  53.0220000  57.1950000  29.8030000  51.9100000  58.5040000
  27.4210000  54.1820000  56.1380000  23.3940000  51.1580000  66.8660000
  25.6080000  50.4170000  66.0550000  27.3820000  49.9020000  65.2170000
  29.4440000  52.9990000  56.5190000  23.6050000  50.5140000  68.0380000
  22.5790000  51.6270000  66.7300000  25.7800000  49.7570000  67.3090000
  24.8230000  49.8000000  68.2680000  22.9380000  50.5370000  68.7150000
  26.5830000  49.2760000  67.4750000  24.9610000  49.3550000  69.0960000
  29.3230000  87.3070000  21.6710000  29.4940000  86.6300000  22.8950000
  30.2990000  87.3020000  20.6670000  28.0790000  88.0360000  21.4390000
  30.2950000  86.1430000  23.0470000  28.5210000  86.6580000  23.8850000
  31.1130000  86.8300000  20.7980000  30.1290000  87.9820000  19.4540000
  27.0950000  88.0410000  22.4580000  27.9090000  88.7160000  20.2260000
  27.2910000  87.3820000  23.6580000  28.6930000  85.9980000  25.1380000
  31.1130000  87.9770000  18.4350000  28.8850000  88.7110000  19.2220000
  26.2810000  88.5090000  22.3130000  27.0950000  89.1890000  20.0950000
  26.3060000  87.3990000  24.6960000  29.4960000  85.5170000  25.3040000
  27.7350000  86.0410000  26.0970000  30.9170000  88.6370000  17.2340000
  31.9270000  87.5100000  18.5800000  28.7140000  89.3880000  17.9980000
  26.5180000  86.7550000  25.8680000  25.4920000  87.8680000  24.5590000
  27.8740000  85.5960000  26.9250000  31.9020000  88.6200000  16.1970000
  29.6870000  89.3610000  17.0080000  27.9130000  89.8760000  17.8460000
  25.8510000  86.7790000  26.5440000  31.6900000  89.2630000  15.0250000
  32.7160000  88.1510000  16.3330000  29.5150000  90.0210000  15.7540000
  30.4730000  89.9780000  14.7950000  32.3570000  89.2400000  14.3480000
  28.7120000  90.5020000  15.5880000  30.3340000  90.4230000  13.9670000
  31.3290000 100.4150000  77.8980000  31.4990000  99.7380000  79.1220000
  32.3040000 100.4090000  76.8940000  30.0840000 101.1440000  77.6660000
  32.3000000  99.2500000  79.2740000  30.5260000  99.7650000  80.1120000
  33.1180000  99.9370000  77.0250000  32.1340000 101.0900000  75.6810000
  29.1000000 101.1490000  78.6850000  29.9140000 101.8240000  76.4530000
  29.2960000 100.4890000  79.8860000  30.6980000  99.1050000  81.3660000
  33.1180000 101.0850000  74.6620000  30.8900000 101.8190000  75.4490000
  28.2860000 101.6160000  78.5400000  29.1000000 102.2960000  76.3220000
  28.3110000 100.5060000  80.9230000  31.5010000  98.6240000  81.5320000
  29.7410000  99.1480000  82.3240000  32.9220000 101.7440000  73.4620000
  33.9320000 100.6170000  74.8070000  30.7190000 102.4950000  74.2250000
  28.5230000  99.8630000  82.0950000  27.4970000 100.9750000  80.7870000
  29.8790000  98.7030000  83.1520000  33.9070000 101.7270000  72.4240000
  31.6920000 102.4680000  73.2350000  29.9180000 102.9830000  74.0730000
  27.8560000  99.8860000  82.7710000  33.6950000 102.3710000  71.2520000
  34.7210000 101.2580000  72.5610000  31.5200000 103.1280000  71.9810000
  32.4780000 103.0850000  71.0230000  34.3620000 102.3470000  70.5760000
  30.7170000 103.6090000  71.8150000  32.3390000 103.5300000  70.1950000
  29.3860000  91.9880000  33.2790000  29.2150000  92.6650000  32.0540000
  28.4100000  91.9930000  34.2820000  30.6300000  91.2590000  33.5110000
  28.4140000  93.1520000  31.9030000  30.1880000  92.6380000  31.0650000
  27.5960000  92.4660000  34.1520000  28.5810000  91.3130000  35.4960000
  31.6140000  91.2540000  32.4920000  30.8010000  90.5790000  34.7240000
  31.4190000  91.9130000  31.2910000  30.0160000  93.2980000  29.8110000
  27.5960000  91.3180000  36.5150000  29.8250000  90.5840000  35.7270000
  32.4290000  90.7860000  32.6360000  31.6140000  90.1060000  34.8550000
  32.4030000  91.8960000  30.2540000  29.2140000  93.7790000  29.6450000
  30.9740000  93.2540000  28.8520000  27.7920000  90.6590000  37.7150000
  26.7820000  91.7860000  36.3700000  29.9950000  89.9070000  36.9520000
  32.1920000  92.5400000  29.0810000  33.2180000  91.4280000  30.3900000
  30.8350000  93.7000000  28.0240000  26.8080000  90.6760000  38.7520000
  29.0230000  89.9350000  37.9410000  30.7960000  89.4200000  37.1040000
  32.8580000  92.5170000  28.4050000  27.0190000  90.0320000  39.9250000
  25.9930000  91.1450000  38.6160000  29.1940000  89.2750000  39.1950000
  28.2370000  89.3180000  40.1540000  26.3520000  90.0550000  40.6010000
  29.9970000  88.7940000  39.3610000  28.3750000  88.8730000  40.9820000
  29.8870000  95.2650000  47.3360000  29.7170000  95.9420000  46.1110000
  28.9110000  95.2700000  48.3390000  31.1310000  94.5360000  47.5670000
  28.9150000  96.4290000  45.9590000  30.6890000  95.9140000  45.1220000
  28.0980000  95.7430000  48.2080000  29.0820000  94.5900000  49.5520000
  32.1160000  94.5310000  46.5480000  31.3020000  93.8560000  48.7810000
  31.9200000  95.1900000  45.3480000  30.5170000  96.5740000  43.8680000
  28.0980000  94.5950000  50.5710000  30.3260000  93.8610000  49.7840000
  32.9300000  94.0630000  46.6930000  32.1150000  93.3830000  48.9110000
  32.9040000  95.1730000  44.3110000  29.7150000  97.0560000  43.7020000
  31.4750000  96.5310000  42.9090000  28.2930000  93.9360000  51.7720000
  27.2830000  95.0630000  50.4270000  30.4960000  93.1840000  51.0090000
  32.6930000  95.8170000  43.1380000  33.7190000  94.7040000  44.4470000
  31.3370000  96.9760000  42.0810000  27.3090000  93.9530000  52.8090000
  29.5240000  93.2110000  51.9980000  31.2980000  92.6970000  51.1600000
  33.3590000  95.7940000  42.4620000  27.5200000  93.3090000  53.9820000
  26.4940000  94.4210000  52.6730000  29.6960000  92.5520000  53.2520000
  28.7380000  92.5950000  54.2110000  26.8540000  93.3320000  54.6580000
  30.4980000  92.0700000  53.4180000  28.8760000  92.1490000  55.0390000
  28.3830000  85.4340000   5.1650000  28.2130000  86.1110000   3.9410000
  27.4080000  85.4400000   6.1690000  29.6270000  84.7050000   5.3970000
  27.4120000  86.5990000   3.7890000  29.1850000  86.0840000   2.9510000
  26.5940000  85.9120000   6.0380000  27.5780000  84.7600000   7.3820000
  30.6120000  84.7000000   4.3780000  29.7980000  84.0250000   6.6100000
  30.4160000  85.3600000   3.1770000  29.0140000  86.7440000   1.6970000
  26.5940000  84.7640000   8.4010000  28.8220000  84.0300000   7.6140000
  31.4260000  84.2330000   4.5230000  30.6120000  83.5530000   6.7410000
  31.4000000  85.3430000   2.1400000  28.2110000  87.2250000   1.5310000
  29.9710000  86.7010000   0.7390000  26.7890000  84.1050000   9.6010000
  25.7790000  85.2320000   8.2560000  28.9930000  83.3540000   8.8380000
  31.1890000  85.9860000   0.9680000  32.2150000  84.8740000   2.2760000
  29.8330000  87.1460000  -0.0890000  25.8050000  84.1220000  10.6390000
  28.0200000  83.3810000   9.8280000  29.7940000  82.8660000   8.9900000
  31.8560000  85.9630000   0.2920000  26.0160000  83.4780000  11.8110000
  24.9900000  84.5910000  10.5020000  28.1920000  82.7210000  11.0820000
  27.2340000  82.7640000  12.0400000  25.3500000  83.5020000  12.4870000
  28.9950000  82.2400000  11.2470000  27.3730000  82.3190000  12.8680000
  30.3880000  98.5420000  61.3920000  30.2180000  99.2190000  60.1680000
  29.4130000  98.5470000  62.3960000  31.6320000  97.8130000  61.6240000
  29.4170000  99.7060000  60.0160000  31.1900000  99.1910000  59.1780000
  28.5990000  99.0190000  62.2650000  29.5830000  97.8670000  63.6090000
  32.6170000  97.8080000  60.6050000  31.8030000  97.1330000  62.8370000
  32.4210000  98.4670000  59.4050000  31.0190000  99.8510000  57.9250000
  28.5990000  97.8720000  64.6280000  30.8270000  97.1380000  63.8410000
  33.4310000  97.3400000  60.7500000  32.6170000  96.6600000  62.9680000
  33.4050000  98.4500000  58.3670000  30.2160000 100.3320000  57.7590000
  31.9760000  99.8080000  56.9660000  28.7940000  97.2130000  65.8290000
  27.7850000  98.3390000  64.4830000  30.9980000  96.4610000  65.0650000
  33.1940000  99.0940000  57.1950000  34.2200000  97.9810000  58.5040000
  31.8380000 100.2530000  56.1380000  27.8100000  97.2290000  66.8660000
  30.0250000  96.4880000  66.0550000  31.7990000  95.9730000  65.2170000
  33.8610000  99.0700000  56.5190000  28.0210000  96.5860000  68.0380000
  26.9960000  97.6980000  66.7300000  30.1970000  95.8280000  67.3090000
  29.2390000  95.8710000  68.2680000  27.3550000  96.6090000  68.7150000
  31.0000000  95.3470000  67.4750000  29.3780000  95.4260000  69.0960000
  25.6430000  48.9140000  21.6710000  25.8130000  48.2380000  22.8950000
  26.6190000  48.9090000  20.6670000  24.3990000  49.6430000  21.4390000
  26.6150000  47.7500000  23.0470000  24.8410000  48.2650000  23.8850000
  27.4320000  48.4370000  20.7980000  26.4480000  49.5890000  19.4540000
  23.4140000  49.6480000  22.4580000  24.2280000  50.3230000  20.2260000
  23.6100000  48.9890000  23.6580000  25.0130000  47.6050000  25.1380000
  27.4320000  49.5840000  18.4350000  25.2040000  50.3180000  19.2220000
  22.6000000  50.1160000  22.3130000  23.4150000  50.7960000  20.0950000
  22.6260000  49.0060000  24.6960000  25.8150000  47.1240000  25.3040000
  24.0550000  47.6480000  26.0970000  27.2370000  50.2440000  17.2340000
  28.2470000  49.1170000  18.5800000  25.0340000  50.9950000  17.9980000
  22.8370000  48.3620000  25.8680000  21.8110000  49.4750000  24.5590000
  24.1930000  47.2030000  26.9250000  28.2210000  50.2270000  16.1970000
  26.0060000  50.9680000  17.0080000  24.2320000  51.4830000  17.8460000
  22.1710000  48.3860000  26.5440000  28.0100000  50.8700000  15.0250000
  29.0360000  49.7580000  16.3330000  25.8340000  51.6280000  15.7540000
  26.7920000  51.5850000  14.7950000  28.6760000  50.8470000  14.3480000
  25.0320000  52.1090000  15.5880000  26.6540000  52.0300000  13.9670000
  26.7080000  60.1490000  61.3920000  26.5370000  60.8260000  60.1680000
  25.7320000  60.1540000  62.3960000  27.9520000  59.4200000  61.6240000
  25.7360000  61.3130000  60.0160000  27.5100000  60.7980000  59.1780000
  24.9180000  60.6260000  62.2650000  25.9030000  59.4740000  63.6090000
  28.9360000  59.4150000  60.6050000  28.1220000  58.7400000  62.8370000
  28.7410000  60.0740000  59.4050000  27.3380000  61.4580000  57.9250000
  24.9180000  59.4790000  64.6280000  27.1470000  58.7450000  63.8410000
  29.7510000  58.9470000  60.7500000  28.9360000  58.2670000  62.9680000
  29.7250000  60.0570000  58.3670000  26.5350000  61.9390000  57.7590000
  28.2960000  61.4150000  56.9660000  25.1140000  58.8200000  65.8290000
  24.1040000  59.9460000  64.4830000  27.3170000  58.0680000  65.0650000
  29.5140000  60.7010000  57.1950000  30.5400000  59.5880000  58.5040000
  28.1570000  61.8600000  56.1380000  24.1300000  58.8360000  66.8660000
  26.3450000  58.0950000  66.0550000  28.1180000  57.5800000  65.2170000
  30.1800000  60.6770000  56.5190000  24.3410000  58.1930000  68.0380000
  23.3150000  59.3050000  66.7300000  26.5160000  57.4350000  67.3090000
  25.5590000  57.4780000  68.2680000  23.6740000  58.2160000  68.7150000
  27.3190000  56.9540000  67.4750000  25.6970000  57.0330000  69.0960000
  26.3790000  56.5930000  21.6710000  26.5490000  55.9160000  22.8950000
  27.3550000  56.5880000  20.6670000  25.1350000  57.3220000  21.4390000
  27.3510000  55.4290000  23.0470000  25.5770000  55.9430000  23.8850000
  28.1680000  56.1150000  20.7980000  27.1840000  57.2680000  19.4540000
  24.1510000  57.3270000  22.4580000  24.9640000  58.0020000  20.2260000
  24.3460000  56.6680000  23.6580000  25.7490000  55.2830000  25.1380000
  28.1690000  57.2630000  18.4350000  25.9400000  57.9970000  19.2220000
  23.3360000  57.7950000  22.3130000  24.1510000  58.4750000  20.0950000
  23.3620000  56.6840000  24.6960000  26.5510000  54.8020000  25.3040000
  24.7910000  55.3260000  26.0970000  27.9730000  57.9220000  17.2340000
  28.9830000  56.7950000  18.5800000  25.7700000  58.6740000  17.9980000
  23.5730000  56.0410000  25.8680000  22.5470000  57.1530000  24.5590000
  24.9290000  54.8810000  26.9250000  28.9570000  57.9050000  16.1970000
  26.7420000  58.6460000  17.0080000  24.9680000  59.1610000  17.8460000
  22.9070000  56.0640000  26.5440000  28.7460000  58.5490000  15.0250000
  29.7720000  57.4360000  16.3330000  26.5700000  59.3060000  15.7540000
  27.5280000  59.2630000  14.7950000  29.4120000  58.5260000  14.3480000
  25.7680000  59.7870000  15.5880000  27.3900000  59.7080000  13.9670000
  26.9430000  64.5510000  47.3360000  26.7720000  65.2270000  46.1110000
  25.9670000  64.5560000  48.3390000  28.1870000  63.8210000  47.5670000
  25.9710000  65.7150000  45.9590000  27.7450000  65.2000000  45.1220000
  25.1530000  65.0280000  48.2080000  26.1370000  63.8760000  49.5520000
  29.1710000  63.8170000  46.5480000  28.3570000  63.1410000  48.7810000
  28.9750000  64.4760000  45.3480000  27.5730000  65.8600000  43.8680000
  25.1530000  63.8810000  50.5710000  27.3820000  63.1460000  49.7840000
  29.9850000  63.3490000  46.6930000  29.1710000  62.6690000  48.9110000
  29.9600000  64.4590000  44.3110000  26.7700000  66.3410000  43.7020000
  28.5310000  65.8170000  42.9090000  25.3490000  63.2210000  51.7720000
  24.3390000  64.3480000  50.4270000  27.5520000  62.4700000  51.0090000
  29.7480000  65.1020000  43.1380000  30.7740000  63.9900000  44.4470000
  28.3920000  66.2620000  42.0810000  24.3640000  63.2380000  52.8090000
  26.5790000  62.4970000  51.9980000  28.3530000  61.9820000  51.1600000
  30.4150000  65.0790000  42.4620000  24.5760000  62.5950000  53.9820000
  23.5500000  63.7070000  52.6730000  26.7510000  61.8370000  53.2520000
  25.7940000  61.8800000  54.2110000  23.9090000  62.6180000  54.6580000
  27.5540000  61.3560000  53.4180000  25.9320000  61.4350000  55.0390000
  25.4390000  54.7200000   5.1650000  25.2680000  55.3970000   3.9410000
  24.4630000  54.7250000   6.1690000  26.6830000  53.9910000   5.3970000
  24.4670000  55.8840000   3.7890000  26.2410000  55.3700000   2.9510000
  23.6490000  55.1980000   6.0380000  24.6340000  54.0450000   7.3820000
  27.6670000  53.9860000   4.3780000  26.8540000  53.3110000   6.6100000
  27.4720000  54.6450000   3.1770000  26.0690000  56.0290000   1.6970000
  23.6490000  54.0500000   8.4010000  25.8780000  53.3160000   7.6140000
  28.4820000  53.5180000   4.5230000  27.6670000  52.8380000   6.7410000
  28.4560000  54.6280000   2.1400000  25.2670000  56.5110000   1.5310000
  27.0270000  55.9860000   0.7390000  23.8450000  53.3910000   9.6010000
  22.8350000  54.5180000   8.2560000  26.0480000  52.6390000   8.8380000
  28.2450000  55.2720000   0.9680000  29.2710000  54.1600000   2.2760000
  26.8880000  56.4320000  -0.0890000  22.8610000  53.4080000  10.6390000
  25.0760000  52.6660000   9.8280000  26.8490000  52.1520000   8.9900000
  28.9110000  55.2490000   0.2920000  23.0720000  52.7640000  11.8110000
  22.0460000  53.8770000  10.5020000  25.2470000  52.0070000  11.0820000
  24.2900000  52.0500000  12.0400000  22.4050000  52.7870000  12.4870000
  26.0500000  51.5250000  11.2470000  24.4280000  51.6050000  12.8680000
  27.4440000  67.8270000  61.3920000  27.2730000  68.5040000  60.1680000
  26.4680000  67.8330000  62.3960000  28.6880000  67.0980000  61.6240000
  26.4720000  68.9920000  60.0160000  28.2460000  68.4770000  59.1780000
  25.6540000  68.3050000  62.2650000  26.6390000  67.1520000  63.6090000
  29.6720000  67.0930000  60.6050000  28.8590000  66.4180000  62.8370000
  29.4770000  67.7530000  59.4050000  28.0740000  69.1370000  57.9250000
  25.6540000  67.1570000  64.6280000  27.8830000  66.4230000  63.8410000
  30.4870000  66.6260000  60.7500000  29.6720000  65.9460000  62.9680000
  30.4610000  67.7360000  58.3670000  27.2720000  69.6180000  57.7590000
  29.0320000  69.0940000  56.9660000  25.8500000  66.4980000  65.8290000
  24.8400000  67.6250000  64.4830000  28.0530000  65.7470000  65.0650000
  30.2500000  68.3790000  57.1950000  31.2760000  67.2670000  58.5040000
  28.8930000  69.5390000  56.1380000  24.8660000  66.5150000  66.8660000
  27.0810000  65.7740000  66.0550000  28.8540000  65.2590000  65.2170000
  30.9160000  68.3560000  56.5190000  25.0770000  65.8710000  68.0380000
  24.0510000  66.9840000  66.7300000  27.2520000  65.1140000  67.3090000
  26.2950000  65.1570000  68.2680000  24.4100000  65.8950000  68.7150000
  28.0550000  64.6330000  67.4750000  26.4330000  64.7120000  69.0960000
  27.9450000  71.1040000  75.4490000  27.7750000  71.7810000  74.2250000
  26.9690000  71.1090000  76.4530000  29.1890000  70.3750000  75.6810000
  26.9740000  72.2690000  74.0730000  28.7470000  71.7540000  73.2350000
  26.1560000  71.5820000  76.3220000  27.1400000  70.4290000  77.6660000
  30.1740000  70.3700000  74.6620000  29.3600000  69.6950000  76.8940000
  29.9780000  71.0290000  73.4620000  28.5750000  72.4140000  71.9810000
  26.1560000  70.4340000  78.6850000  28.3840000  69.7000000  77.8980000
  30.9880000  69.9030000  74.8070000  30.1730000  69.2230000  77.0250000
  30.9620000  71.0130000  72.4240000  27.7730000  72.8950000  71.8150000
  29.5330000  72.3710000  71.0230000  26.3510000  69.7750000  79.8860000
  25.3410000  70.9020000  78.5400000  28.5540000  69.0230000  79.1220000
  30.7510000  71.6560000  71.2520000  31.7770000  70.5440000  72.5610000
  29.3950000  72.8160000  70.1950000  25.3670000  69.7920000  80.9230000
  27.5820000  69.0510000  80.1120000  29.3560000  68.5360000  79.2740000
  31.4170000  71.6330000  70.5760000  25.5780000  69.1480000  82.0950000
  24.5520000  70.2610000  80.7870000  27.7540000  68.3910000  81.3660000
  26.7960000  68.4340000  82.3240000  24.9120000  69.1720000  82.7710000
  28.5560000  67.9100000  81.5320000  26.9340000  67.9890000  83.1520000
  28.1180000  70.8250000  49.7840000  28.2880000  70.1480000  51.0090000
  29.0930000  70.8200000  48.7810000  26.8740000  71.5540000  49.5520000
  29.0890000  69.6610000  51.1600000  27.3160000  70.1760000  51.9980000
  29.9070000  70.3470000  48.9110000  28.9230000  71.5000000  47.5670000
  25.8890000  71.5590000  50.5710000  26.7030000  72.2340000  48.3390000
  26.0850000  70.9000000  51.7720000  27.4870000  69.5160000  53.2520000
  29.9070000  71.4950000  46.5480000  27.6790000  72.2290000  47.3360000
  25.0750000  72.0270000  50.4270000  25.8890000  72.7070000  48.2080000
  25.1010000  70.9170000  52.8090000  28.2900000  69.0350000  53.4180000
  26.5300000  69.5590000  54.2110000  29.7120000  72.1540000  45.3480000
  30.7210000  71.0270000  46.6930000  27.5080000  72.9060000  46.1110000
  25.3120000  70.2730000  53.9820000  24.2860000  71.3860000  52.6730000
  26.6680000  69.1140000  55.0390000  30.6960000  72.1380000  44.3110000
  28.4810000  72.8790000  45.1220000  26.7070000  73.3930000  45.9590000
  24.6450000  70.2960000  54.6580000  30.4850000  72.7810000  43.1380000
  31.5100000  71.6690000  44.4470000  28.3090000  73.5390000  43.8680000
  29.2670000  73.4960000  42.9090000  31.1510000  72.7580000  42.4620000
  27.5060000  74.0200000  43.7020000  29.1280000  73.9410000  42.0810000
  28.1800000  75.5060000  61.3920000  28.0100000  76.1830000  60.1680000
  27.2040000  75.5110000  62.3960000  29.4240000  74.7770000  61.6240000
  27.2080000  76.6700000  60.0160000  28.9820000  76.1560000  59.1780000
  26.3910000  75.9840000  62.2650000  27.3750000  74.8310000  63.6090000
  30.4080000  74.7720000  60.6050000  29.5950000  74.0970000  62.8370000
  30.2130000  75.4310000  59.4050000  28.8100000  76.8150000  57.9250000
  26.3900000  74.8360000  64.6280000  28.6190000  74.1020000  63.8410000
  31.2230000  74.3040000  60.7500000  30.4080000  73.6240000  62.9680000
  31.1970000  75.4140000  58.3670000  28.0080000  77.2970000  57.7590000
  29.7680000  76.7720000  56.9660000  26.5860000  74.1770000  65.8290000
  25.5760000  75.3040000  64.4830000  28.7890000  73.4250000  65.0650000
  30.9860000  76.0580000  57.1950000  32.0120000  74.9460000  58.5040000
  29.6300000  77.2170000  56.1380000  25.6020000  74.1940000  66.8660000
  27.8170000  73.4520000  66.0550000  29.5910000  72.9380000  65.2170000
  31.6520000  76.0350000  56.5190000  25.8130000  73.5500000  68.0380000
  24.7870000  74.6620000  66.7300000  27.9890000  72.7930000  67.3090000
  27.0310000  72.8360000  68.2680000  25.1470000  73.5730000  68.7150000
  28.7910000  72.3110000  67.4750000  27.1690000  72.3910000  69.0960000
  29.6210000  80.6560000  91.9550000  29.7920000  79.9790000  93.1790000
  30.5970000  80.6500000  90.9510000  28.3770000  81.3850000  91.7230000
  30.5930000  79.4910000  93.3310000  28.8190000  80.0060000  94.1690000
  31.4110000  80.1780000  91.0820000  30.4270000  81.3310000  89.7380000
  27.3930000  81.3900000  92.7420000  28.2070000  82.0650000  90.5100000
  27.5890000  80.7300000  93.9420000  28.9910000  79.3460000  95.4230000
  31.4110000  81.3260000  88.7190000  29.1830000  82.0600000  89.5060000
  26.5790000  81.8570000  92.5970000  27.3930000  82.5370000  90.3790000
  26.6040000  80.7470000  94.9800000  29.7940000  78.8650000  95.5880000
  28.0330000  79.3890000  96.3810000  31.2150000  81.9850000  87.5180000
  32.2250000  80.8580000  88.8640000  29.0120000  82.7360000  88.2820000
  26.8160000  80.1040000  96.1520000  25.7900000  81.2160000  94.8430000
  28.1720000  78.9440000  97.2090000  32.2000000  81.9680000  86.4810000
  29.9850000  82.7090000  87.2920000  28.2110000  83.2240000  88.1300000
  26.1490000  80.1270000  96.8280000  31.9880000  82.6120000  85.3090000
  33.0140000  81.4990000  86.6170000  29.8130000  83.3690000  86.0380000
  30.7710000  83.3260000  85.0800000  32.6550000  82.5880000  84.6320000
  29.0100000  83.8500000  85.8720000  30.6320000  83.7710000  84.2520000
  27.1150000  64.2710000  21.6710000  27.2860000  63.5950000  22.8950000
  28.0910000  64.2660000  20.6670000  25.8710000  65.0010000  21.4390000
  28.0870000  63.1070000  23.0470000  26.3130000  63.6220000  23.8850000
  28.9050000  63.7940000  20.7980000  27.9200000  64.9460000  19.4540000
  24.8870000  65.0050000  22.4580000  25.7000000  65.6810000  20.2260000
  25.0820000  64.3460000  23.6580000  26.4850000  62.9620000  25.1380000
  28.9050000  64.9410000  18.4350000  26.6760000  65.6760000  19.2220000
  24.0720000  65.4730000  22.3130000  24.8870000  66.1530000  20.0950000
  24.0980000  64.3630000  24.6960000  27.2870000  62.4810000  25.3040000
  25.5270000  63.0050000  26.0970000  28.7090000  65.6010000  17.2340000
  29.7190000  64.4740000  18.5800000  26.5060000  66.3520000  17.9980000
  24.3090000  63.7200000  25.8680000  23.2830000  64.8320000  24.5590000
  25.6660000  62.5600000  26.9250000  29.6930000  65.5840000  16.1970000
  27.4780000  66.3250000  17.0080000  25.7050000  66.8400000  17.8460000
  23.6430000  63.7430000  26.5440000  29.4820000  66.2270000  15.0250000
  30.5080000  65.1150000  16.3330000  27.3070000  66.9850000  15.7540000
  28.2640000  66.9420000  14.7950000  30.1490000  66.2040000  14.3480000
  26.5040000  67.4660000  15.5880000  28.1260000  67.3870000  13.9670000
  27.8510000  71.9500000  21.6710000  28.0220000  71.2730000  22.8950000
  28.8270000  71.9450000  20.6670000  26.6070000  72.6790000  21.4390000
  28.8230000  70.7860000  23.0470000  27.0490000  71.3010000  23.8850000
  29.6410000  71.4720000  20.7980000  28.6560000  72.6250000  19.4540000
  25.6230000  72.6840000  22.4580000  26.4370000  73.3590000  20.2260000
  25.8180000  72.0250000  23.6580000  27.2210000  70.6410000  25.1380000
  29.6410000  72.6200000  18.4350000  27.4120000  73.3540000  19.2220000
  24.8080000  73.1520000  22.3130000  25.6230000  73.8320000  20.0950000
  24.8340000  72.0420000  24.6960000  28.0240000  70.1590000  25.3040000
  26.2630000  70.6840000  26.0970000  29.4450000  73.2790000  17.2340000
  30.4550000  72.1520000  18.5800000  27.2420000  74.0310000  17.9980000
  25.0450000  71.3980000  25.8680000  24.0190000  72.5110000  24.5590000
  26.4020000  70.2390000  26.9250000  30.4290000  73.2620000  16.1970000
  28.2140000  74.0040000  17.0080000  26.4410000  74.5180000  17.8460000
  24.3790000  71.4210000  26.5440000  30.2180000  73.9060000  15.0250000
  31.2440000  72.7940000  16.3330000  28.0430000  74.6630000  15.7540000
  29.0000000  74.6200000  14.7950000  30.8850000  73.8830000  14.3480000
  27.2400000  75.1450000  15.5880000  28.8620000  75.0660000  13.9670000
  28.8540000  78.5040000  49.7840000  29.0240000  77.8270000  51.0090000
  29.8300000  78.4990000  48.7810000  27.6100000  79.2330000  49.5520000
  29.8250000  77.3390000  51.1600000  28.0520000  77.8540000  51.9980000
  30.6430000  78.0260000  48.9110000  29.6590000  79.1790000  47.5670000
  26.6250000  79.2380000  50.5710000  27.4390000  79.9130000  48.3390000
  26.8210000  78.5780000  51.7720000  28.2230000  77.1940000  53.2520000
  30.6430000  79.1740000  46.5480000  28.4150000  79.9080000  47.3360000
  25.8110000  79.7050000  50.4270000  26.6250000  80.3850000  48.2080000
  25.8370000  78.5950000  52.8090000  29.0260000  76.7130000  53.4180000
  27.2660000  77.2370000  54.2110000  30.4480000  79.8330000  45.3480000
  31.4580000  78.7060000  46.6930000  28.2440000  80.5850000  46.1110000
  26.0480000  77.9520000  53.9820000  25.0220000  79.0640000  52.6730000
  27.4040000  76.7920000  55.0390000  31.4320000  79.8160000  44.3110000
  29.2170000  80.5570000  45.1220000  27.4430000  81.0720000  45.9590000
  25.3810000  77.9750000  54.6580000  31.2210000  80.4600000  43.1380000
  32.2470000  79.3470000  44.4470000  29.0450000  81.2170000  43.8680000
  30.0030000  81.1740000  42.9090000  31.8870000  80.4360000  42.4620000
  28.2430000  81.6980000  43.7020000  29.8640000  81.6190000  42.0810000
  29.3550000  81.7810000  63.8410000  29.5250000  81.1040000  65.0650000
  30.3310000  81.7750000  62.8370000  28.1110000  82.5100000  63.6090000
  30.3270000  80.6160000  65.2170000  28.5530000  81.1310000  66.0550000
  31.1440000  81.3030000  62.9680000  30.1600000  82.4550000  61.6240000
  27.1270000  82.5150000  64.6280000  27.9400000  83.1900000  62.3960000
  27.3220000  81.8550000  65.8290000  28.7250000  80.4710000  67.3090000
  31.1450000  82.4510000  60.6050000  28.9160000  83.1850000  61.3920000
  26.3120000  82.9820000  64.4830000  27.1270000  83.6620000  62.2650000
  26.3380000  81.8720000  66.8660000  29.5270000  79.9900000  67.4750000
  27.7670000  80.5140000  68.2680000  30.9490000  83.1100000  59.4050000
  31.9590000  81.9830000  60.7500000  28.7460000  83.8610000  60.1680000
  26.5490000  81.2290000  68.0380000  25.5230000  82.3410000  66.7300000
  27.9050000  80.0690000  69.0960000  31.9330000  83.0930000  58.3670000
  29.7180000  83.8340000  59.1780000  27.9440000  84.3490000  60.0160000
  25.8830000  81.2520000  68.7150000  31.7220000  83.7370000  57.1950000
  32.7480000  82.6240000  58.5040000  29.5460000  84.4940000  57.9250000
  30.5040000  84.4510000  56.9660000  32.3880000  83.7130000  56.5190000
  28.7440000  84.9750000  57.7590000  30.3660000  84.8960000  56.1380000
  29.4170000  86.4610000  75.4490000  29.2470000  87.1380000  74.2250000
  28.4420000  86.4670000  76.4530000  30.6610000  85.7320000  75.6810000
  28.4460000  87.6260000  74.0730000  30.2200000  87.1110000  73.2350000
  27.6280000  86.9390000  76.3220000  28.6120000  85.7860000  77.6660000
  31.6460000  85.7270000  74.6620000  30.8320000  85.0520000  76.8940000
  31.4500000  86.3870000  73.4620000  30.0480000  87.7710000  71.9810000
  27.6280000  85.7910000  78.6850000  29.8560000  85.0570000  77.8980000
  32.4600000  85.2600000  74.8070000  31.6460000  84.5800000  77.0250000
  32.4340000  86.3700000  72.4240000  29.2450000  88.2520000  71.8150000
  31.0050000  87.7280000  71.0230000  27.8230000  85.1320000  79.8860000
  26.8140000  86.2590000  78.5400000  30.0270000  84.3810000  79.1220000
  32.2230000  87.0130000  71.2520000  33.2490000  85.9010000  72.5610000
  30.8670000  88.1730000  70.1950000  26.8390000  85.1490000  80.9230000
  29.0540000  84.4080000  80.1120000  30.8280000  83.8930000  79.2740000
  32.8900000  86.9900000  70.5760000  27.0500000  84.5050000  82.0950000
  26.0250000  85.6180000  80.7870000  29.2260000  83.7480000  81.3660000
  28.2680000  83.7910000  82.3240000  26.3840000  84.5290000  82.7710000
  30.0290000  83.2670000  81.5320000  28.4070000  83.3460000  83.1520000
  28.1480000  81.0330000  19.2220000  27.9780000  81.7090000  17.9980000
  27.1730000  81.0380000  20.2260000  29.3930000  80.3040000  19.4540000
  27.1770000  82.1970000  17.8460000  28.9510000  81.6820000  17.0080000
  26.3590000  81.5100000  20.0950000  27.3430000  80.3580000  21.4390000
  30.3770000  80.2990000  18.4350000  29.5630000  79.6230000  20.6670000
  30.1810000  80.9580000  17.2340000  28.7790000  82.3420000  15.7540000
  26.3590000  80.3630000  22.4580000  28.5870000  79.6290000  21.6710000
  31.1910000  79.8310000  18.5800000  30.3770000  79.1510000  20.7980000
  31.1660000  80.9410000  16.1970000  27.9760000  82.8230000  15.5880000
  29.7360000  82.2990000  14.7950000  26.5550000  79.7030000  23.6580000
  25.5450000  80.8300000  22.3130000  28.7580000  78.9520000  22.8950000
  30.9540000  81.5850000  15.0250000  31.9800000  80.4720000  16.3330000
  29.5980000  82.7440000  13.9670000  25.5700000  79.7200000  24.6960000
  27.7850000  78.9790000  23.8850000  29.5590000  78.4640000  23.0470000
  31.6210000  81.5610000  14.3480000  25.7820000  79.0770000  25.8680000
  24.7560000  80.1890000  24.5590000  27.9570000  78.3190000  25.1380000
  26.9990000  78.3620000  26.0970000  25.1150000  79.1000000  26.5440000
  28.7600000  77.8380000  25.3040000  27.1380000  77.9170000  26.9250000
  29.1510000  87.5860000  47.3360000  28.9810000  88.2630000  46.1110000
  28.1750000  87.5920000  48.3390000  30.3950000  86.8570000  47.5670000
  28.1790000  88.7510000  45.9590000  29.9530000  88.2360000  45.1220000
  27.3620000  88.0640000  48.2080000  28.3460000  86.9110000  49.5520000
  31.3790000  86.8520000  46.5480000  30.5660000  86.1770000  48.7810000
  31.1840000  87.5120000  45.3480000  29.7810000  88.8960000  43.8680000
  27.3610000  86.9160000  50.5710000  29.5900000  86.1820000  49.7840000
  32.1940000  86.3850000  46.6930000  31.3790000  85.7050000  48.9110000
  32.1680000  87.4950000  44.3110000  28.9790000  89.3770000  43.7020000
  30.7390000  88.8530000  42.9090000  27.5570000  86.2570000  51.7720000
  26.5470000  87.3840000  50.4270000  29.7600000  85.5060000  51.0090000
  31.9570000  88.1380000  43.1380000  32.9830000  87.0260000  44.4470000
  30.6010000  89.2980000  42.0810000  26.5730000  86.2740000  52.8090000
  28.7880000  85.5330000  51.9980000  30.5620000  85.0180000  51.1600000
  32.6230000  88.1150000  42.4620000  26.7840000  85.6300000  53.9820000
  25.7580000  86.7430000  52.6730000  28.9600000  84.8730000  53.2520000
  28.0020000  84.9160000  54.2110000  26.1180000  85.6540000  54.6580000
  29.7620000  84.3920000  53.4180000  28.1400000  84.4710000  55.0390000
  29.6520000  90.8630000  61.3920000  29.4820000  91.5400000  60.1680000
  28.6760000  90.8680000  62.3960000  30.8960000  90.1340000  61.6240000
  28.6810000  92.0270000  60.0160000  30.4540000  91.5130000  59.1780000
  27.8630000  91.3410000  62.2650000  28.8470000  90.1880000  63.6090000
  31.8810000  90.1290000  60.6050000  31.0670000  89.4540000  62.8370000
  31.6850000  90.7880000  59.4050000  30.2830000  92.1730000  57.9250000
  27.8630000  90.1930000  64.6280000  30.0910000  89.4590000  63.8410000
  32.6950000  89.6620000  60.7500000  31.8810000  88.9810000  62.9680000
  32.6690000  90.7720000  58.3670000  29.4800000  92.6540000  57.7590000
  31.2400000  92.1300000  56.9660000  28.0580000  89.5340000  65.8290000
  27.0480000  90.6610000  64.4830000  30.2620000  88.7820000  65.0650000
  32.4580000  91.4150000  57.1950000  33.4840000  90.3030000  58.5040000
  31.1020000  92.5750000  56.1380000  27.0740000  89.5510000  66.8660000
  29.2890000  88.8100000  66.0550000  31.0630000  88.2950000  65.2170000
  33.1250000  91.3920000  56.5190000  27.2850000  88.9070000  68.0380000
  26.2590000  90.0200000  66.7300000  29.4610000  88.1500000  67.3090000
  28.5030000  88.1930000  68.2680000  26.6190000  88.9300000  68.7150000
  30.2630000  87.6690000  67.4750000  28.6420000  87.7480000  69.0960000
  30.1530000  94.1400000  75.4490000  29.9830000  94.8170000  74.2250000
  29.1780000  94.1450000  76.4530000  31.3980000  93.4110000  75.6810000
  29.1820000  95.3040000  74.0730000  30.9560000  94.7900000  73.2350000
  28.3640000  94.6180000  76.3220000  29.3480000  93.4650000  77.6660000
  32.3820000  93.4060000  74.6620000  31.5680000  92.7310000  76.8940000
  32.1860000  94.0650000  73.4620000  30.7840000  95.4490000  71.9810000
  28.3640000  93.4700000  78.6850000  30.5920000  92.7360000  77.8980000
  33.1960000  92.9380000  74.8070000  32.3820000  92.2580000  77.0250000
  33.1710000  94.0480000  72.4240000  29.9810000  95.9310000  71.8150000
  31.7410000  95.4060000  71.0230000  28.5600000  92.8110000  79.8860000
  27.5500000  93.9380000  78.5400000  30.7630000  92.0590000  79.1220000
  32.9590000  94.6920000  71.2520000  33.9850000  93.5800000  72.5610000
  31.6030000  95.8510000  70.1950000  27.5750000  92.8280000  80.9230000
  29.7900000  92.0860000  80.1120000  31.5640000  91.5720000  79.2740000
  33.6260000  94.6690000  70.5760000  27.7870000  92.1840000  82.0950000
  26.7610000  93.2960000  80.7870000  29.9620000  91.4270000  81.3660000
  29.0040000  91.4700000  82.3240000  27.1200000  92.2070000  82.7710000
  30.7650000  90.9450000  81.5320000  29.1430000  91.0250000  83.1520000
  28.6500000  84.3100000  33.2790000  28.4790000  84.9860000  32.0540000
  27.6740000  84.3150000  34.2820000  29.8940000  83.5800000  33.5110000
  27.6780000  85.4740000  31.9030000  29.4520000  84.9590000  31.0650000
  26.8600000  84.7870000  34.1520000  27.8450000  83.6350000  35.4960000
  30.8780000  83.5750000  32.4920000  30.0640000  82.9000000  34.7240000
  30.6830000  84.2350000  31.2910000  29.2800000  85.6190000  29.8110000
  26.8600000  83.6400000  36.5150000  29.0890000  82.9050000  35.7270000
  31.6920000  83.1080000  32.6360000  30.8780000  82.4280000  34.8550000
  31.6670000  84.2180000  30.2540000  28.4770000  86.1000000  29.6450000
  30.2380000  85.5760000  28.8520000  27.0560000  82.9800000  37.7150000
  26.0460000  84.1070000  36.3700000  29.2590000  82.2290000  36.9520000
  31.4560000  84.8610000  29.0810000  32.4810000  83.7490000  30.3900000
  30.0990000  86.0210000  28.0240000  26.0720000  82.9970000  38.7520000
  28.2860000  82.2560000  37.9410000  30.0600000  81.7410000  37.1040000
  32.1220000  84.8380000  28.4050000  26.2830000  82.3540000  39.9250000
  25.2570000  83.4660000  38.6160000  28.4580000  81.5960000  39.1950000
  27.5010000  81.6390000  40.1540000  25.6160000  82.3770000  40.6010000
  29.2610000  81.1150000  39.3610000  27.6390000  81.1940000  40.9820000
  28.0860000  76.3520000   7.6140000  28.2570000  75.6750000   8.8380000
  29.0620000  76.3470000   6.6100000  26.8420000  77.0810000   7.3820000
  29.0580000  75.1880000   8.9900000  27.2840000  75.7020000   9.8280000
  29.8760000  75.8740000   6.7410000  28.8910000  77.0270000   5.3970000
  25.8580000  77.0860000   8.4010000  26.6710000  77.7610000   6.1690000
  26.0530000  76.4270000   9.6010000  27.4560000  75.0420000  11.0820000
  29.8760000  77.0220000   4.3780000  27.6470000  77.7560000   5.1650000
  25.0430000  77.5540000   8.2560000  25.8580000  78.2340000   6.0380000
  25.0690000  76.4430000  10.6390000  28.2580000  74.5610000  11.2470000
  26.4980000  75.0850000  12.0400000  29.6800000  77.6810000   3.1770000
  30.6900000  76.5540000   4.5230000  27.4770000  78.4330000   3.9410000
  25.2800000  75.8000000  11.8110000  24.2540000  76.9120000  10.5020000
  26.6370000  74.6400000  12.8680000  30.6640000  77.6640000   2.1400000
  28.4490000  78.4050000   2.9510000  26.6760000  78.9200000   3.7890000
  24.6140000  75.8230000  12.4870000  30.4530000  78.3080000   0.9680000
  31.4790000  77.1950000   2.2760000  28.2780000  79.0650000   1.6970000
  29.2350000  79.0220000   0.7390000  31.1200000  78.2850000   0.2920000
  27.4750000  79.5460000   1.5310000  29.0970000  79.4670000  -0.0890000
  30.6550000  97.4170000  89.5060000  30.4840000  98.0940000  88.2820000
  29.6790000  97.4220000  90.5100000  31.8990000  96.6880000  89.7380000
  29.6830000  98.5810000  88.1300000  31.4570000  98.0660000  87.2920000
  28.8650000  97.8950000  90.3790000  29.8500000  96.7420000  91.7230000
  32.8830000  96.6830000  88.7190000  32.0690000  96.0080000  90.9510000
  32.6880000  97.3420000  87.5180000  31.2850000  98.7260000  86.0380000
  28.8650000  96.7470000  92.7420000  31.0940000  96.0130000  91.9550000
  33.6980000  96.2150000  88.8640000  32.8830000  95.5350000  91.0820000
  33.6720000  97.3250000  86.4810000  30.4820000  99.2070000  85.8720000
  32.2430000  98.6830000  85.0800000  29.0610000  96.0880000  93.9420000
  28.0510000  97.2140000  92.5970000  31.2640000  95.3360000  93.1790000
  33.4610000  97.9690000  85.3090000  34.4870000  96.8560000  86.6170000
  32.1040000  99.1280000  84.2520000  28.0770000  96.1040000  94.9800000
  30.2920000  95.3630000  94.1690000  32.0650000  94.8490000  93.3310000
  34.1270000  97.9460000  84.6320000  28.2880000  95.4610000  96.1520000
  27.2620000  96.5730000  94.8430000  30.4630000  94.7030000  95.4230000
  29.5060000  94.7460000  96.3810000  27.6210000  95.4840000  96.8280000
  31.2660000  94.2220000  95.5880000  29.6440000  94.3010000  97.2090000
  21.0220000   8.6490000   5.1650000  20.8520000   9.3250000   3.9410000
  20.0460000   8.6540000   6.1690000  22.2660000   7.9190000   5.3970000
  20.0500000   9.8130000   3.7890000  21.8240000   9.2980000   2.9510000
  19.2330000   9.1260000   6.0380000  20.2170000   7.9740000   7.3820000
  23.2510000   7.9140000   4.3780000  22.4370000   7.2390000   6.6100000
  23.0550000   8.5740000   3.1770000  21.6520000   9.9580000   1.6970000
  19.2330000   7.9780000   8.4010000  21.4610000   7.2440000   7.6140000
  24.0650000   7.4470000   4.5230000  23.2500000   6.7670000   6.7410000
  24.0390000   8.5570000   2.1400000  20.8500000  10.4390000   1.5310000
  22.6100000   9.9150000   0.7390000  19.4280000   7.3190000   9.6010000
  18.4180000   8.4460000   8.2560000  21.6310000   6.5680000   8.8380000
  23.8280000   9.2000000   0.9680000  24.8540000   8.0880000   2.2760000
  22.4720000  10.3600000  -0.0890000  18.4440000   7.3360000  10.6390000
  20.6590000   6.5950000   9.8280000  22.4330000   6.0800000   8.9900000
  24.4940000   9.1770000   0.2920000  18.6550000   6.6930000  11.8110000
  17.6290000   7.8050000  10.5020000  20.8310000   5.9350000  11.0820000
  19.8730000   5.9780000  12.0400000  17.9890000   6.7160000  12.4870000
  21.6330000   5.4540000  11.2470000  20.0110000   5.5330000  12.8680000
  23.5280000  25.0330000  75.4490000  23.3580000  25.7090000  74.2250000
  22.5530000  25.0380000  76.4530000  24.7730000  24.3040000  75.6810000
  22.5570000  26.1970000  74.0730000  24.3310000  25.6820000  73.2350000
  21.7390000  25.5100000  76.3220000  22.7230000  24.3580000  77.6660000
  25.7570000  24.2990000  74.6620000  24.9430000  23.6230000  76.8940000
  25.5610000  24.9580000  73.4620000  24.1590000  26.3420000  71.9810000
  21.7390000  24.3630000  78.6850000  23.9670000  23.6290000  77.8980000
  26.5710000  23.8310000  74.8070000  25.7570000  23.1510000  77.0250000
  26.5450000  24.9410000  72.4240000  23.3560000  26.8230000  71.8150000
  25.1160000  26.2990000  71.0230000  21.9350000  23.7030000  79.8860000
  20.9250000  24.8300000  78.5400000  24.1380000  22.9520000  79.1220000
  26.3340000  25.5850000  71.2520000  27.3600000  24.4720000  72.5610000
  24.9780000  26.7440000  70.1950000  20.9500000  23.7200000  80.9230000
  23.1650000  22.9790000  80.1120000  24.9390000  22.4640000  79.2740000
  27.0010000  25.5610000  70.5760000  21.1610000  23.0770000  82.0950000
  20.1360000  24.1890000  80.7870000  23.3370000  22.3190000  81.3660000
  22.3790000  22.3620000  82.3240000  20.4950000  23.1000000  82.7710000
  24.1400000  21.8380000  81.5320000  22.5180000  21.9170000  83.1520000
  24.7030000  31.3070000  77.8980000  24.8740000  30.6300000  79.1220000
  25.6790000  31.3020000  76.8940000  23.4590000  32.0360000  77.6660000
  25.6750000  30.1430000  79.2740000  23.9010000  30.6580000  80.1120000
  26.4930000  30.8300000  77.0250000  25.5090000  31.9820000  75.6810000
  22.4750000  32.0410000  78.6850000  23.2890000  32.7160000  76.4530000
  22.6710000  31.3820000  79.8860000  24.0730000  29.9980000  81.3660000
  26.4930000  31.9770000  74.6620000  24.2650000  32.7110000  75.4490000
  21.6610000  32.5090000  78.5400000  22.4750000  33.1890000  76.3220000
  21.6860000  31.3990000  80.9230000  24.8760000  29.5170000  81.5320000
  23.1150000  30.0410000  82.3240000  26.2970000  32.6360000  73.4620000
  27.3070000  31.5100000  74.8070000  24.0940000  33.3880000  74.2250000
  21.8980000  30.7550000  82.0950000  20.8720000  31.8680000  80.7870000
  23.2540000  29.5960000  83.1520000  27.2820000  32.6200000  72.4240000
  25.0670000  33.3610000  73.2350000  23.2930000  33.8760000  74.0730000
  21.2310000  30.7790000  82.7710000  27.0700000  33.2630000  71.2520000
  28.0960000  32.1510000  72.5610000  24.8950000  34.0210000  71.9810000
  25.8530000  33.9780000  71.0230000  27.7370000  33.2400000  70.5760000
  24.0920000  34.5020000  71.8150000  25.7140000  34.4230000  70.1950000
  25.4400000  38.9860000  77.8980000  25.6100000  38.3090000  79.1220000
  26.4150000  38.9810000  76.8940000  24.1950000  39.7150000  77.6660000
  26.4110000  37.8220000  79.2740000  24.6370000  38.3360000  80.1120000
  27.2290000  38.5080000  77.0250000  26.2450000  39.6610000  75.6810000
  23.2110000  39.7200000  78.6850000  24.0250000  40.3950000  76.4530000
  23.4070000  39.0610000  79.8860000  24.8090000  37.6760000  81.3660000
  27.2290000  39.6560000  74.6620000  25.0010000  40.3900000  75.4490000
  22.3970000  40.1870000  78.5400000  23.2110000  40.8680000  76.3220000
  22.4230000  39.0770000  80.9230000  25.6120000  37.1950000  81.5320000
  23.8520000  37.7190000  82.3240000  27.0330000  40.3150000  73.4620000
  28.0430000  39.1880000  74.8070000  24.8300000  41.0670000  74.2250000
  22.6340000  38.4340000  82.0950000  21.6080000  39.5460000  80.7870000
  23.9900000  37.2740000  83.1520000  28.0180000  40.2980000  72.4240000
  25.8030000  41.0390000  73.2350000  24.0290000  41.5540000  74.0730000
  21.9670000  38.4570000  82.7710000  27.8070000  40.9420000  71.2520000
  28.8320000  39.8290000  72.5610000  25.6310000  41.6990000  71.9810000
  26.5890000  41.6560000  71.0230000  28.4730000  40.9190000  70.5760000
  24.8280000  42.1800000  71.8150000  26.4500000  42.1010000  70.1950000
  22.9330000  22.6020000   7.6140000  23.1040000  21.9250000   8.8380000
  23.9090000  22.5960000   6.6100000  21.6890000  23.3310000   7.3820000
  23.9050000  21.4370000   8.9900000  22.1310000  21.9520000   9.8280000
  24.7230000  22.1240000   6.7410000  23.7380000  23.2770000   5.3970000
  20.7050000  23.3360000   8.4010000  21.5190000  24.0110000   6.1690000
  20.9000000  22.6760000   9.6010000  22.3030000  21.2920000  11.0820000
  24.7230000  23.2720000   4.3780000  22.4940000  24.0060000   5.1650000
  19.8910000  23.8030000   8.2560000  20.7050000  24.4830000   6.0380000
  19.9160000  22.6930000  10.6390000  23.1060000  20.8110000  11.2470000
  21.3450000  21.3350000  12.0400000  24.5270000  23.9310000   3.1770000
  25.5370000  22.8040000   4.5230000  22.3240000  24.6820000   3.9410000
  20.1270000  22.0500000  11.8110000  19.1020000  23.1620000  10.5020000
  21.4840000  20.8900000  12.8680000  25.5110000  23.9140000   2.1400000
  23.2970000  24.6550000   2.9510000  21.5230000  25.1700000   3.7890000
  19.4610000  22.0730000  12.4870000  25.3000000  24.5580000   0.9680000
  26.3260000  23.4450000   2.2760000  23.1250000  25.3150000   1.6970000
  24.0820000  25.2720000   0.7390000  25.9670000  24.5340000   0.2920000
  22.3220000  25.7960000   1.5310000  23.9440000  25.7170000  -0.0890000
  24.7340000  41.5150000  47.3360000  24.5640000  42.1920000  46.1110000
  23.7580000  41.5200000  48.3390000  25.9780000  40.7860000  47.5670000
  23.7630000  42.6790000  45.9590000  25.5360000  42.1640000  45.1220000
  22.9450000  41.9920000  48.2080000  23.9290000  40.8400000  49.5520000
  26.9630000  40.7810000  46.5480000  26.1490000  40.1060000  48.7810000
  26.7670000  41.4400000  45.3480000  25.3650000  42.8240000  43.8680000
  22.9450000  40.8450000  50.5710000  25.1730000  40.1110000  49.7840000
  27.7770000  40.3130000  46.6930000  26.9630000  39.6330000  48.9110000
  27.7510000  41.4230000  44.3110000  24.5620000  43.3050000  43.7020000
  26.3220000  42.7810000  42.9090000  23.1400000  40.1860000  51.7720000
  22.1300000  41.3120000  50.4270000  25.3440000  39.4340000  51.0090000
  27.5400000  42.0670000  43.1380000  28.5660000  40.9540000  44.4470000
  26.1840000  43.2260000  42.0810000  22.1560000  40.2020000  52.8090000
  24.3710000  39.4610000  51.9980000  26.1450000  38.9460000  51.1600000
  28.2070000  42.0430000  42.4620000  22.3670000  39.5590000  53.9820000
  21.3410000  40.6710000  52.6730000  24.5430000  38.8010000  53.2520000
  23.5850000  38.8440000  54.2110000  21.7010000  39.5820000  54.6580000
  25.3450000  38.3200000  53.4180000  23.7240000  38.3990000  55.0390000
  26.2380000  51.3450000  89.5060000  26.0680000  52.0220000  88.2820000
  25.2620000  51.3500000  90.5100000  27.4820000  50.6160000  89.7380000
  25.2660000  52.5100000  88.1300000  27.0400000  51.9950000  87.2920000
  24.4490000  51.8230000  90.3790000  25.4330000  50.6700000  91.7230000
  28.4670000  50.6110000  88.7190000  27.6530000  49.9360000  90.9510000
  28.2710000  51.2710000  87.5180000  26.8680000  52.6550000  86.0380000
  24.4490000  50.6750000  92.7420000  26.6770000  49.9410000  91.9550000
  29.2810000  50.1440000  88.8640000  28.4660000  49.4640000  91.0820000
  29.2550000  51.2540000  86.4810000  26.0660000  53.1360000  85.8720000
  27.8260000  52.6120000  85.0800000  24.6440000  50.0160000  93.9420000
  23.6340000  51.1430000  92.5970000  26.8470000  49.2640000  93.1790000
  29.0440000  51.8970000  85.3090000  30.0700000  50.7850000  86.6170000
  27.6880000  53.0570000  84.2520000  23.6600000  50.0330000  94.9800000
  25.8750000  49.2920000  94.1690000  27.6490000  48.7770000  93.3310000
  29.7100000  51.8740000  84.6320000  23.8710000  49.3890000  96.1520000
  22.8450000  50.5020000  94.8430000  26.0470000  48.6320000  95.4230000
  25.0890000  48.6750000  96.3810000  23.2050000  49.4130000  96.8280000
  26.8490000  48.1510000  95.5880000  25.2270000  48.2300000  97.2090000
  23.6690000  30.2800000   7.6140000  23.8400000  29.6030000   8.8380000
  24.6450000  30.2750000   6.6100000  22.4250000  31.0090000   7.3820000
  24.6410000  29.1160000   8.9900000  22.8670000  29.6310000   9.8280000
  25.4590000  29.8030000   6.7410000  24.4750000  30.9550000   5.3970000
  21.4410000  31.0140000   8.4010000  22.2550000  31.6890000   6.1690000
  21.6370000  30.3550000   9.6010000  23.0390000  28.9710000  11.0820000
  25.4590000  30.9500000   4.3780000  23.2300000  31.6840000   5.1650000
  20.6270000  31.4820000   8.2560000  21.4410000  32.1620000   6.0380000
  20.6520000  30.3720000  10.6390000  23.8420000  28.4900000  11.2470000
  22.0810000  29.0140000  12.0400000  25.2630000  31.6100000   3.1770000
  26.2730000  30.4830000   4.5230000  23.0600000  32.3610000   3.9410000
  20.8640000  29.7280000  11.8110000  19.8380000  30.8410000  10.5020000
  22.2200000  28.5690000  12.8680000  26.2480000  31.5930000   2.1400000
  24.0330000  32.3340000   2.9510000  22.2590000  32.8490000   3.7890000
  20.1970000  29.7520000  12.4870000  26.0360000  32.2360000   0.9680000
  27.0620000  31.1240000   2.2760000  23.8610000  32.9940000   1.6970000
  24.8180000  32.9510000   0.7390000  26.7030000  32.2130000   0.2920000
  23.0580000  33.4750000   1.5310000  24.6800000  33.3960000  -0.0890000
  25.4080000  44.5120000  35.7270000  25.5780000  43.8360000  36.9520000
  26.3840000  44.5070000  34.7240000  24.1640000  45.2420000  35.4960000
  26.3800000  43.3480000  37.1040000  24.6060000  43.8630000  37.9410000
  27.1970000  44.0350000  34.8550000  26.2130000  45.1870000  33.5110000
  23.1800000  45.2470000  36.5150000  23.9930000  45.9220000  34.2820000
  23.3750000  44.5870000  37.7150000  24.7780000  43.2030000  39.1950000
  27.1980000  45.1830000  32.4920000  24.9690000  45.9170000  33.2790000
  22.3650000  45.7140000  36.3700000  23.1800000  46.3940000  34.1520000
  22.3910000  44.6040000  38.7520000  25.5800000  42.7220000  39.3610000
  23.8200000  43.2460000  40.1540000  27.0020000  45.8420000  31.2910000
  28.0120000  44.7150000  32.6360000  24.7990000  46.5930000  32.0540000
  22.6020000  43.9610000  39.9250000  21.5760000  45.0730000  38.6160000
  23.9580000  42.8010000  40.9820000  27.9860000  45.8250000  30.2540000
  25.7710000  46.5660000  31.0650000  23.9970000  47.0810000  31.9030000
  21.9360000  43.9840000  40.6010000  27.7750000  46.4680000  29.0810000
  28.8010000  45.3560000  30.3900000  25.5990000  47.2260000  29.8110000
  26.5570000  47.1830000  28.8520000  28.4410000  46.4450000  28.4050000
  24.7970000  47.7070000  29.6450000  26.4190000  47.6280000  28.0240000
  23.9670000  39.3630000   5.1650000  23.7960000  40.0400000   3.9410000
  22.9910000  39.3680000   6.1690000  25.2110000  38.6340000   5.3970000
  22.9950000  40.5270000   3.7890000  24.7690000  40.0120000   2.9510000
  22.1770000  39.8410000   6.0380000  23.1610000  38.6880000   7.3820000
  26.1950000  38.6290000   4.3780000  25.3810000  37.9540000   6.6100000
  25.9990000  39.2880000   3.1770000  24.5970000  40.6720000   1.6970000
  22.1770000  38.6930000   8.4010000  24.4060000  37.9590000   7.6140000
  27.0090000  38.1610000   4.5230000  26.1950000  37.4810000   6.7410000
  26.9840000  39.2710000   2.1400000  23.7940000  41.1530000   1.5310000
  25.5550000  40.6290000   0.7390000  22.3730000  38.0340000   9.6010000
  21.3630000  39.1610000   8.2560000  24.5760000  37.2820000   8.8380000
  26.7720000  39.9150000   0.9680000  27.7980000  38.8020000   2.2760000
  25.4160000  41.0740000  -0.0890000  21.3880000  38.0500000  10.6390000
  23.6030000  37.3090000   9.8280000  25.3770000  36.7950000   8.9900000
  27.4390000  39.8920000   0.2920000  21.6000000  37.4070000  11.8110000
  20.5740000  38.5190000  10.5020000  23.7750000  36.6490000  11.0820000
  22.8180000  36.6920000  12.0400000  20.9330000  37.4300000  12.4870000
  24.5780000  36.1680000  11.2470000  22.9560000  36.2470000  12.8680000
  26.4730000  55.7470000  75.4490000  26.3020000  56.4240000  74.2250000
  25.4970000  55.7520000  76.4530000  27.7170000  55.0180000  75.6810000
  25.5010000  56.9110000  74.0730000  27.2750000  56.3970000  73.2350000
  24.6830000  56.2250000  76.3220000  25.6680000  55.0720000  77.6660000
  28.7010000  55.0130000  74.6620000  27.8880000  54.3380000  76.8940000
  28.5060000  55.6720000  73.4620000  27.1030000  57.0560000  71.9810000
  24.6830000  55.0770000  78.6850000  26.9120000  54.3430000  77.8980000
  29.5160000  54.5450000  74.8070000  28.7010000  53.8650000  77.0250000
  29.4900000  55.6550000  72.4240000  26.3010000  57.5380000  71.8150000
  28.0610000  57.0130000  71.0230000  24.8790000  54.4180000  79.8860000
  23.8690000  55.5450000  78.5400000  27.0820000  53.6660000  79.1220000
  29.2790000  56.2990000  71.2520000  30.3050000  55.1870000  72.5610000
  27.9220000  57.4580000  70.1950000  23.8950000  54.4350000  80.9230000
  26.1100000  53.6930000  80.1120000  27.8830000  53.1790000  79.2740000
  29.9450000  56.2760000  70.5760000  24.1060000  53.7910000  82.0950000
  23.0800000  54.9030000  80.7870000  26.2810000  53.0340000  81.3660000
  25.3240000  53.0770000  82.3240000  23.4390000  53.8140000  82.7710000
  27.0840000  52.5520000  81.5320000  25.4620000  52.6320000  83.1520000
  31.8300000 103.6910000  91.9550000  32.0000000 103.0150000  93.1790000
  32.8060000 103.6860000  90.9510000  30.5860000 104.4210000  91.7230000
  32.8010000 102.5270000  93.3310000  31.0280000 103.0420000  94.1690000
  33.6190000 103.2140000  91.0820000  32.6350000 104.3660000  89.7380000
  29.6010000 104.4250000  92.7420000  30.4150000 105.1010000  90.5100000
  29.7970000 103.7660000  93.9420000  31.1990000 102.3820000  95.4230000
  33.6190000 104.3610000  88.7190000  31.3910000 105.0950000  89.5060000
  28.7870000 104.8930000  92.5970000  29.6010000 105.5730000  90.3790000
  28.8130000 103.7830000  94.9800000  32.0020000 101.9010000  95.5880000
  30.2420000 102.4250000  96.3810000  33.4240000 105.0210000  87.5180000
  34.4340000 103.8940000  88.8640000  31.2200000 105.7720000  88.2820000
  29.0240000 103.1390000  96.1520000  27.9980000 104.2520000  94.8430000
  30.3800000 101.9800000  97.2090000  34.4080000 105.0040000  86.4810000
  32.1930000 105.7450000  87.2920000  30.4190000 106.2600000  88.1300000
  28.3570000 103.1630000  96.8280000  34.1970000 105.6470000  85.3090000
  35.2230000 104.5350000  86.6170000  32.0210000 106.4050000  86.0380000
  32.9790000 106.3620000  85.0800000  34.8630000 105.6240000  84.6320000
  31.2190000 106.8860000  85.8720000  32.8400000 106.8070000  84.2520000
  26.1440000  52.1910000  35.7270000  26.3150000  51.5140000  36.9520000
  27.1200000  52.1860000  34.7240000  24.9000000  52.9200000  35.4960000
  27.1160000  51.0270000  37.1040000  25.3420000  51.5420000  37.9410000
  27.9340000  51.7130000  34.8550000  26.9490000  52.8660000  33.5110000
  23.9160000  52.9250000  36.5150000  24.7290000  53.6000000  34.2820000
  24.1110000  52.2660000  37.7150000  25.5140000  50.8820000  39.1950000
  27.9340000  52.8610000  32.4920000  25.7050000  53.5950000  33.2790000
  23.1010000  53.3930000  36.3700000  23.9160000  54.0730000  34.1520000
  23.1270000  52.2830000  38.7520000  26.3160000  50.4010000  39.3610000
  24.5560000  50.9250000  40.1540000  27.7380000  53.5200000  31.2910000
  28.7480000  52.3930000  32.6360000  25.5350000  54.2720000  32.0540000
  23.3380000  51.6390000  39.9250000  22.3120000  52.7520000  38.6160000
  24.6950000  50.4800000  40.9820000  28.7220000  53.5040000  30.2540000
  26.5070000  54.2450000  31.0650000  24.7340000  54.7590000  31.9030000
  22.6720000  51.6620000  40.6010000  28.5110000  54.1470000  29.0810000
  29.5370000  53.0350000  30.3900000  26.3360000  54.9050000  29.8110000
  27.2930000  54.8620000  28.8520000  29.1780000  54.1240000  28.4050000
  25.5330000  55.3860000  29.6450000  27.1550000  55.3070000  28.0240000
  26.2060000  56.8720000  47.3360000  26.0360000  57.5490000  46.1110000
  25.2310000  56.8770000  48.3390000  27.4510000  56.1430000  47.5670000
  25.2350000  58.0360000  45.9590000  27.0090000  57.5220000  45.1220000
  24.4170000  57.3500000  48.2080000  25.4010000  56.1970000  49.5520000
  28.4350000  56.1380000  46.5480000  27.6210000  55.4630000  48.7810000
  28.2390000  56.7970000  45.3480000  26.8370000  58.1810000  43.8680000
  24.4170000  56.2020000  50.5710000  26.6450000  55.4680000  49.7840000
  29.2490000  55.6700000  46.6930000  28.4350000  54.9900000  48.9110000
  29.2240000  56.7800000  44.3110000  26.0340000  58.6630000  43.7020000
  27.7940000  58.1380000  42.9090000  24.6130000  55.5430000  51.7720000
  23.6030000  56.6700000  50.4270000  26.8160000  54.7910000  51.0090000
  29.0120000  57.4240000  43.1380000  30.0380000  56.3110000  44.4470000
  27.6560000  58.5830000  42.0810000  23.6280000  55.5600000  52.8090000
  25.8430000  54.8180000  51.9980000  27.6170000  54.3040000  51.1600000
  29.6790000  57.4010000  42.4620000  23.8400000  54.9160000  53.9820000
  22.8140000  56.0280000  52.6730000  26.0150000  54.1590000  53.2520000
  25.0570000  54.2020000  54.2110000  23.1730000  54.9390000  54.6580000
  26.8180000  53.6770000  53.4180000  25.1960000  53.7560000  55.0390000
  25.1420000  45.6370000   7.6140000  25.3120000  44.9610000   8.8380000
  26.1170000  45.6320000   6.6100000  23.8980000  46.3670000   7.3820000
  26.1130000  44.4730000   8.9900000  24.3390000  44.9880000   9.8280000
  26.9310000  45.1600000   6.7410000  25.9470000  46.3120000   5.3970000
  22.9130000  46.3710000   8.4010000  23.7270000  47.0470000   6.1690000
  23.1090000  45.7120000   9.6010000  24.5110000  44.3280000  11.0820000
  26.9310000  46.3070000   4.3780000  24.7030000  47.0420000   5.1650000
  22.0990000  46.8390000   8.2560000  22.9130000  47.5190000   6.0380000
  22.1250000  45.7290000  10.6390000  25.3140000  43.8470000  11.2470000
  23.5540000  44.3710000  12.0400000  26.7360000  46.9670000   3.1770000
  27.7450000  45.8400000   4.5230000  24.5320000  47.7180000   3.9410000
  22.3360000  45.0860000  11.8110000  21.3100000  46.1980000  10.5020000
  23.6920000  43.9260000  12.8680000  27.7200000  46.9500000   2.1400000
  25.5050000  47.6910000   2.9510000  23.7310000  48.2060000   3.7890000
  21.6690000  45.1090000  12.4870000  27.5090000  47.5930000   0.9680000
  28.5340000  46.4810000   2.2760000  25.3330000  48.3510000   1.6970000
  26.2910000  48.3080000   0.7390000  28.1750000  47.5700000   0.2920000
  24.5300000  48.8320000   1.5310000  26.1520000  48.7530000  -0.0890000
  27.2090000  63.4260000  75.4490000  27.0390000  64.1020000  74.2250000
  26.2330000  63.4310000  76.4530000  28.4530000  62.6970000  75.6810000
  26.2370000  64.5900000  74.0730000  28.0110000  64.0750000  73.2350000
  25.4200000  63.9030000  76.3220000  26.4040000  62.7510000  77.6660000
  29.4370000  62.6920000  74.6620000  28.6240000  62.0160000  76.8940000
  29.2420000  63.3510000  73.4620000  27.8390000  64.7350000  71.9810000
  25.4190000  62.7560000  78.6850000  27.6480000  62.0220000  77.8980000
  30.2520000  62.2240000  74.8070000  29.4370000  61.5440000  77.0250000
  30.2260000  63.3340000  72.4240000  27.0370000  65.2160000  71.8150000
  28.7970000  64.6920000  71.0230000  25.6150000  62.0960000  79.8860000
  24.6050000  63.2230000  78.5400000  27.8180000  61.3450000  79.1220000
  30.0150000  63.9780000  71.2520000  31.0410000  62.8650000  72.5610000
  28.6590000  65.1370000  70.1950000  24.6310000  62.1130000  80.9230000
  26.8460000  61.3720000  80.1120000  28.6200000  60.8570000  79.2740000
  30.6810000  63.9540000  70.5760000  24.8420000  61.4700000  82.0950000
  23.8160000  62.5820000  80.7870000  27.0180000  60.7120000  81.3660000
  26.0600000  60.7550000  82.3240000  24.1760000  61.4930000  82.7710000
  27.8200000  60.2310000  81.5320000  26.1980000  60.3100000  83.1520000
  27.7100000  66.7030000  89.5060000  27.5400000  67.3790000  88.2820000
  26.7350000  66.7080000  90.5100000  28.9540000  65.9730000  89.7380000
  26.7390000  67.8670000  88.1300000  28.5120000  67.3520000  87.2920000
  25.9210000  67.1800000  90.3790000  26.9050000  66.0280000  91.7230000
  29.9390000  65.9680000  88.7190000  29.1250000  65.2930000  90.9510000
  29.7430000  66.6280000  87.5180000  28.3410000  68.0120000  86.0380000
  25.9210000  66.0320000  92.7420000  28.1490000  65.2980000  91.9550000
  30.7530000  65.5010000  88.8640000  29.9390000  64.8210000  91.0820000
  30.7270000  66.6110000  86.4810000  27.5380000  68.4930000  85.8720000
  29.2980000  67.9690000  85.0800000  26.1160000  65.3730000  93.9420000
  25.1060000  66.5000000  92.5970000  28.3200000  64.6220000  93.1790000
  30.5160000  67.2540000  85.3090000  31.5420000  66.1420000  86.6170000
  29.1600000  68.4140000  84.2520000  25.1320000  65.3900000  94.9800000
  27.3470000  64.6490000  94.1690000  29.1210000  64.1340000  93.3310000
  31.1830000  67.2310000  84.6320000  25.3430000  64.7470000  96.1520000
  24.3170000  65.8590000  94.8430000  27.5190000  63.9890000  95.4230000
  26.5610000  64.0320000  96.3810000  24.6770000  64.7700000  96.8280000
  28.3210000  63.5080000  95.5880000  26.7000000  63.5870000  97.2090000
  26.4410000  61.2740000  33.2790000  26.2710000  61.9500000  32.0540000
  25.4660000  61.2790000  34.2820000  27.6850000  60.5450000  33.5110000
  25.4700000  62.4380000  31.9030000  27.2440000  61.9230000  31.0650000
  24.6520000  61.7510000  34.1520000  25.6360000  60.5990000  35.4960000
  28.6700000  60.5400000  32.4920000  27.8560000  59.8650000  34.7240000
  28.4740000  61.1990000  31.2910000  27.0720000  62.5830000  29.8110000
  24.6520000  60.6040000  36.5150000  26.8800000  59.8700000  35.7270000
  29.4840000  60.0720000  32.6360000  28.6700000  59.3920000  34.8550000
  29.4580000  61.1820000  30.2540000  26.2690000  63.0640000  29.6450000
  28.0290000  62.5400000  28.8520000  24.8470000  59.9440000  37.7150000
  23.8380000  61.0710000  36.3700000  27.0510000  59.1930000  36.9520000
  29.2470000  61.8260000  29.0810000  30.2730000  60.7130000  30.3900000
  27.8910000  62.9850000  28.0240000  23.8630000  59.9610000  38.7520000
  26.0780000  59.2200000  37.9410000  27.8520000  58.7050000  37.1040000
  29.9140000  61.8020000  28.4050000  24.0740000  59.3180000  39.9250000
  23.0490000  60.4300000  38.6160000  26.2500000  58.5600000  39.1950000
  25.2920000  58.6030000  40.1540000  23.4080000  59.3410000  40.6010000
  27.0530000  58.0790000  39.3610000  25.4310000  58.1580000  40.9820000
  28.4460000  74.3810000  89.5060000  28.2760000  75.0580000  88.2820000
  27.4710000  74.3860000  90.5100000  29.6900000  73.6520000  89.7380000
  27.4750000  75.5450000  88.1300000  29.2490000  75.0310000  87.2920000
  26.6570000  74.8590000  90.3790000  27.6410000  73.7060000  91.7230000
  30.6750000  73.6470000  88.7190000  29.8610000  72.9720000  90.9510000
  30.4790000  74.3060000  87.5180000  29.0770000  75.6900000  86.0380000
  26.6570000  73.7110000  92.7420000  28.8850000  72.9770000  91.9550000
  31.4890000  73.1790000  88.8640000  30.6750000  72.4990000  91.0820000
  31.4630000  74.2890000  86.4810000  28.2740000  76.1720000  85.8720000
  30.0340000  75.6470000  85.0800000  26.8520000  73.0520000  93.9420000
  25.8430000  74.1790000  92.5970000  29.0560000  72.3000000  93.1790000
  31.2520000  74.9330000  85.3090000  32.2780000  73.8210000  86.6170000
  29.8960000  76.0930000  84.2520000  25.8680000  73.0690000  94.9800000
  28.0830000  72.3270000  94.1690000  29.8570000  71.8130000  93.3310000
  31.9190000  74.9100000  84.6320000  26.0790000  72.4250000  96.1520000
  25.0540000  73.5380000  94.8430000  28.2550000  71.6680000  95.4230000
  27.2970000  71.7110000  96.3810000  25.4130000  72.4480000  96.8280000
  29.0580000  71.1860000  95.5880000  27.4360000  71.2660000  97.2090000
  26.1750000  62.3990000   5.1650000  26.0050000  63.0750000   3.9410000
  25.1990000  62.4040000   6.1690000  27.4190000  61.6700000   5.3970000
  25.2030000  63.5630000   3.7890000  26.9770000  63.0480000   2.9510000
  24.3860000  62.8760000   6.0380000  25.3700000  61.7240000   7.3820000
  28.4030000  61.6650000   4.3780000  27.5900000  60.9890000   6.6100000
  28.2080000  62.3240000   3.1770000  26.8050000  63.7080000   1.6970000
  24.3850000  61.7290000   8.4010000  26.6140000  60.9950000   7.6140000
  29.2180000  61.1970000   4.5230000  28.4030000  60.5170000   6.7410000
  29.1920000  62.3070000   2.1400000  26.0030000  64.1890000   1.5310000
  27.7630000  63.6650000   0.7390000  24.5810000  61.0690000   9.6010000
  23.5710000  62.1960000   8.2560000  26.7840000  60.3180000   8.8380000
  28.9810000  62.9510000   0.9680000  30.0070000  61.8380000   2.2760000
  27.6250000  64.1100000  -0.0890000  23.5970000  61.0860000  10.6390000
  25.8120000  60.3450000   9.8280000  27.5850000  59.8300000   8.9900000
  29.6470000  62.9270000   0.2920000  23.8080000  60.4430000  11.8110000
  22.7820000  61.5550000  10.5020000  25.9840000  59.6850000  11.0820000
  25.0260000  59.7280000  12.0400000  23.1420000  60.4660000  12.4870000
  26.7860000  59.2040000  11.2470000  25.1640000  59.2830000  12.8680000
  27.6160000  67.5480000  35.7270000  27.7870000  66.8720000  36.9520000
  28.5920000  67.5430000  34.7240000  26.3720000  68.2770000  35.4960000
  28.5880000  66.3840000  37.1040000  26.8140000  66.8990000  37.9410000
  29.4060000  67.0710000  34.8550000  28.4220000  68.2230000  33.5110000
  25.3880000  68.2820000  36.5150000  26.2020000  68.9580000  34.2820000
  25.5840000  67.6230000  37.7150000  26.9860000  66.2390000  39.1950000
  29.4060000  68.2180000  32.4920000  27.1770000  68.9520000  33.2790000
  24.5740000  68.7500000  36.3700000  25.3880000  69.4300000  34.1520000
  24.5990000  67.6400000  38.7520000  27.7890000  65.7580000  39.3610000
  26.0280000  66.2820000  40.1540000  29.2100000  68.8780000  31.2910000
  30.2200000  67.7510000  32.6360000  27.0070000  69.6290000  32.0540000
  24.8110000  66.9960000  39.9250000  23.7850000  68.1090000  38.6160000
  26.1670000  65.8370000  40.9820000  30.1950000  68.8610000  30.2540000
  27.9800000  69.6020000  31.0650000  26.2060000  70.1170000  31.9030000
  24.1440000  67.0200000  40.6010000  29.9830000  69.5040000  29.0810000
  31.0090000  68.3920000  30.3900000  27.8080000  70.2620000  29.8110000
  28.7650000  70.2190000  28.8520000  30.6500000  69.4810000  28.4050000
  27.0050000  70.7430000  29.6450000  28.6270000  70.6640000  28.0240000
  28.6810000  78.7830000  75.4490000  28.5110000  79.4600000  74.2250000
  27.7050000  78.7880000  76.4530000  29.9250000  78.0540000  75.6810000
  27.7100000  79.9470000  74.0730000  29.4830000  79.4320000  73.2350000
  26.8920000  79.2600000  76.3220000  27.8760000  78.1080000  77.6660000
  30.9100000  78.0490000  74.6620000  30.0960000  77.3740000  76.8940000
  30.7140000  78.7080000  73.4620000  29.3120000  80.0920000  71.9810000
  26.8920000  78.1130000  78.6850000  29.1200000  77.3790000  77.8980000
  31.7240000  77.5810000  74.8070000  30.9100000  76.9010000  77.0250000
  31.6980000  78.6910000  72.4240000  28.5090000  80.5730000  71.8150000
  30.2690000  80.0490000  71.0230000  27.0870000  77.4540000  79.8860000
  26.0770000  78.5800000  78.5400000  29.2910000  76.7020000  79.1220000
  31.4870000  79.3350000  71.2520000  32.5130000  78.2220000  72.5610000
  30.1310000  80.4940000  70.1950000  26.1030000  77.4700000  80.9230000
  28.3180000  76.7290000  80.1120000  30.0920000  76.2150000  79.2740000
  32.1540000  79.3120000  70.5760000  26.3140000  76.8270000  82.0950000
  25.2880000  77.9390000  80.7870000  28.4900000  76.0690000  81.3660000
  27.5320000  76.1120000  82.3240000  25.6480000  76.8500000  82.7710000
  29.2920000  75.5880000  81.5320000  27.6710000  75.6670000  83.1520000
  27.9140000  76.6310000  33.2790000  27.7430000  77.3080000  32.0540000
  26.9380000  76.6360000  34.2820000  29.1580000  75.9020000  33.5110000
  26.9420000  77.7950000  31.9030000  28.7160000  77.2800000  31.0650000
  26.1240000  77.1090000  34.1520000  27.1080000  75.9560000  35.4960000
  30.1420000  75.8970000  32.4920000  29.3280000  75.2220000  34.7240000
  29.9460000  76.5560000  31.2910000  28.5440000  77.9400000  29.8110000
  26.1240000  75.9610000  36.5150000  28.3530000  75.2270000  35.7270000
  30.9560000  75.4290000  32.6360000  30.1420000  74.7490000  34.8550000
  30.9310000  76.5390000  30.2540000  27.7410000  78.4210000  29.6450000
  29.5020000  77.8970000  28.8520000  26.3200000  75.3020000  37.7150000
  25.3100000  76.4290000  36.3700000  28.5230000  74.5500000  36.9520000
  30.7190000  77.1830000  29.0810000  31.7450000  76.0700000  30.3900000
  29.3630000  78.3420000  28.0240000  25.3350000  75.3190000  38.7520000
  27.5500000  74.5770000  37.9410000  29.3240000  74.0630000  37.1040000
  31.3860000  77.1600000  28.4050000  25.5470000  74.6750000  39.9250000
  24.5210000  75.7870000  38.6160000  27.7220000  73.9170000  39.1950000
  26.7650000  73.9610000  40.1540000  24.8800000  74.6980000  40.6010000
  28.5250000  73.4360000  39.3610000  26.9030000  73.5150000  40.9820000
  27.3500000  68.6730000   7.6140000  27.5200000  67.9960000   8.8380000
  28.3260000  68.6680000   6.6100000  26.1060000  69.4020000   7.3820000
  28.3220000  67.5090000   8.9900000  26.5480000  68.0240000   9.8280000
  29.1390000  68.1960000   6.7410000  28.1550000  69.3480000   5.3970000
  25.1220000  69.4070000   8.4010000  25.9350000  70.0820000   6.1690000
  25.3170000  68.7480000   9.6010000  26.7200000  67.3640000  11.0820000
  29.1400000  69.3430000   4.3780000  26.9110000  70.0770000   5.1650000
  24.3070000  69.8750000   8.2560000  25.1220000  70.5550000   6.0380000
  24.3330000  68.7650000  10.6390000  27.5220000  66.8830000  11.2470000
  25.7620000  67.4070000  12.0400000  28.9440000  70.0020000   3.1770000
  29.9540000  68.8760000   4.5230000  26.7410000  70.7540000   3.9410000
  24.5440000  68.1210000  11.8110000  23.5180000  69.2340000  10.5020000
  25.9000000  66.9620000  12.8680000  29.9280000  69.9860000   2.1400000
  27.7130000  70.7270000   2.9510000  25.9390000  71.2420000   3.7890000
  23.8780000  68.1450000  12.4870000  29.7170000  70.6290000   0.9680000
  30.7430000  69.5170000   2.2760000  27.5410000  71.3870000   1.6970000
  28.4990000  71.3440000   0.7390000  30.3830000  70.6060000   0.2920000
  26.7390000  71.8680000   1.5310000  28.3610000  71.7890000  -0.0890000
  29.9190000  89.7380000  89.5060000  29.7480000  90.4150000  88.2820000
  28.9430000  89.7430000  90.5100000  31.1630000  89.0090000  89.7380000
  28.9470000  90.9030000  88.1300000  30.7210000  90.3880000  87.2920000
  28.1290000  90.2160000  90.3790000  29.1130000  89.0630000  91.7230000
  32.1470000  89.0040000  88.7190000  31.3330000  88.3290000  90.9510000
  31.9510000  89.6630000  87.5180000  30.5490000  91.0480000  86.0380000
  28.1290000  89.0680000  92.7420000  30.3580000  88.3340000  91.9550000
  32.9610000  88.5370000  88.8640000  32.1470000  87.8570000  91.0820000
  32.9360000  89.6470000  86.4810000  29.7460000  91.5290000  85.8720000
  31.5070000  91.0050000  85.0800000  28.3250000  88.4090000  93.9420000
  27.3150000  89.5360000  92.5970000  30.5280000  87.6570000  93.1790000
  32.7240000  90.2900000  85.3090000  33.7500000  89.1780000  86.6170000
  31.3680000  91.4500000  84.2520000  27.3410000  88.4260000  94.9800000
  29.5550000  87.6850000  94.1690000  31.3290000  87.1700000  93.3310000
  33.3910000  90.2670000  84.6320000  27.5520000  87.7820000  96.1520000
  26.5260000  88.8950000  94.8430000  29.7270000  87.0250000  95.4230000
  28.7700000  87.0680000  96.3810000  26.8850000  87.8060000  96.8280000
  30.5300000  86.5440000  95.5880000  28.9080000  86.6230000  97.2090000
  26.8040000  23.8540000  89.3190000  26.6480000  23.9730000  87.9270000
  25.8230000  23.2970000  90.1500000  28.0350000  24.3420000  89.9230000
  25.8460000  23.6560000  87.5270000  27.6240000  24.5390000  87.1180000
  25.0100000  22.9790000  89.7770000  26.0020000  23.1950000  91.5370000
  29.0270000  24.9130000  89.0910000  28.2140000  24.2400000  91.3110000
  28.8480000  25.0140000  87.7170000  27.4600000  24.6640000  85.6950000
  25.0110000  22.6230000  92.3690000  27.2330000  23.6830000  92.1420000
  29.8320000  25.2340000  89.4810000  29.0280000  24.5570000  91.6830000
  29.8440000  25.6000000  86.8530000  26.6600000  24.3570000  85.2830000
  28.4390000  25.2150000  84.9330000  25.1890000  22.5220000  93.7440000
  24.2050000  22.3020000  91.9800000  27.3900000  23.5630000  93.5330000
  29.6460000  25.6980000  85.5180000  30.6540000  25.9240000  87.2290000
  28.3180000  25.2800000  83.9930000  24.1930000  21.9360000  94.6070000
  26.4140000  22.9980000  94.3430000  28.1910000  23.8810000  93.9340000
  30.3150000  26.0890000  84.9680000  24.3910000  21.8390000  95.9430000
  23.3830000  21.6120000  94.2320000  26.5780000  22.8730000  95.7650000
  25.5990000  22.3210000  96.5270000  23.7230000  21.4470000  96.4920000
  27.3770000  23.1790000  96.1770000  25.7200000  22.2570000  97.4680000
  25.3000000  14.0230000  47.1490000  25.1440000  14.1430000  45.7570000
  24.3190000  13.4660000  47.9790000  26.5310000  14.5110000  47.7530000
  24.3430000  13.8250000  45.3560000  26.1200000  14.7080000  44.9470000
  23.5060000  13.1490000  47.6070000  24.4990000  13.3640000  49.3670000
  27.5230000  15.0830000  46.9210000  26.7110000  14.4090000  49.1400000
  27.3440000  15.1840000  45.5460000  25.9560000  14.8330000  43.5250000
  23.5070000  12.7920000  50.1990000  25.7290000  13.8520000  49.9710000
  28.3280000  15.4040000  47.3100000  27.5240000  14.7270000  49.5130000
  28.3410000  15.7700000  44.6830000  25.1560000  14.5270000  43.1130000
  26.9350000  15.3840000  42.7630000  23.6850000  12.6910000  51.5740000
  22.7010000  12.4710000  49.8100000  25.8860000  13.7330000  51.3630000
  28.1430000  15.8670000  43.3480000  29.1500000  16.0940000  45.0580000
  26.8140000  15.4490000  41.8220000  22.6890000  12.1060000  52.4370000
  24.9100000  13.1670000  52.1730000  26.6870000  14.0500000  51.7630000
  28.8110000  16.2590000  42.7980000  22.8870000  12.0080000  53.7720000
  21.8800000  11.7820000  52.0610000  25.0740000  13.0420000  53.5950000
  24.0950000  12.4910000  54.3570000  22.2190000  11.6170000  54.3220000
  25.8740000  13.3480000  54.0070000  24.2160000  12.4260000  55.2970000
  27.5400000  31.5320000  89.3190000  27.3840000  31.6520000  87.9270000
  26.5590000  30.9750000  90.1500000  28.7710000  32.0200000  89.9230000
  26.5830000  31.3340000  87.5270000  28.3600000  32.2170000  87.1180000
  25.7460000  30.6580000  89.7770000  26.7390000  30.8730000  91.5370000
  29.7630000  32.5920000  89.0910000  28.9510000  31.9180000  91.3110000
  29.5840000  32.6930000  87.7170000  28.1960000  32.3420000  85.6950000
  25.7470000  30.3020000  92.3690000  27.9690000  31.3610000  92.1420000
  30.5680000  32.9130000  89.4810000  29.7640000  32.2360000  91.6830000
  30.5800000  33.2790000  86.8530000  27.3960000  32.0360000  85.2830000
  29.1750000  32.8930000  84.9330000  25.9250000  30.2000000  93.7440000
  24.9410000  29.9800000  91.9800000  28.1260000  31.2420000  93.5330000
  30.3820000  33.3760000  85.5180000  31.3900000  33.6030000  87.2290000
  29.0540000  32.9580000  83.9930000  24.9290000  29.6150000  94.6070000
  27.1500000  30.6760000  94.3430000  28.9270000  31.5590000  93.9340000
  31.0510000  33.7680000  84.9680000  25.1270000  29.5170000  95.9430000
  24.1200000  29.2910000  94.2320000  27.3140000  30.5510000  95.7650000
  26.3350000  30.0000000  96.5270000  24.4590000  29.1260000  96.4920000
  28.1140000  30.8580000  96.1770000  26.4560000  29.9350000  97.4680000
  28.2450000  44.7380000  47.1490000  28.0880000  44.8570000  45.7570000
  27.2640000  44.1800000  47.9790000  29.4760000  45.2260000  47.7530000
  27.2870000  44.5400000  45.3560000  29.0640000  45.4220000  44.9470000
  26.4500000  43.8630000  47.6070000  27.4430000  44.0780000  49.3670000
  30.4680000  45.7970000  46.9210000  29.6550000  45.1240000  49.1400000
  30.2890000  45.8980000  45.5460000  28.9010000  45.5480000  43.5250000
  26.4510000  43.5070000  50.1990000  28.6740000  44.5660000  49.9710000
  31.2730000  46.1180000  47.3100000  30.4690000  45.4410000  49.5130000
  31.2850000  46.4840000  44.6830000  28.1010000  45.2410000  43.1130000
  29.8800000  46.0990000  42.7630000  26.6300000  43.4060000  51.5740000
  25.6460000  43.1860000  49.8100000  28.8300000  44.4470000  51.3630000
  31.0870000  46.5810000  43.3480000  32.0950000  46.8080000  45.0580000
  29.7580000  46.1640000  41.8220000  25.6340000  42.8200000  52.4370000
  27.8540000  43.8820000  52.1730000  29.6320000  44.7650000  51.7630000
  31.7550000  46.9730000  42.7980000  25.8320000  42.7230000  53.7720000
  24.8240000  42.4960000  52.0610000  28.0180000  43.7560000  53.5950000
  27.0390000  43.2050000  54.3570000  25.1630000  42.3310000  54.3220000
  28.8180000  44.0630000  54.0070000  27.1600000  43.1400000  55.2970000
  29.1750000  47.8430000  64.0280000  29.3320000  47.7240000  65.4200000
  30.1560000  48.4010000  63.1970000  27.9440000  47.3550000  63.4240000
  30.1330000  48.0410000  65.8200000  28.3560000  47.1590000  66.2290000
  30.9700000  48.7180000  63.5700000  29.9770000  48.5030000  61.8100000
  26.9520000  46.7840000  64.2560000  27.7650000  47.4570000  62.0360000
  27.1310000  46.6830000  65.6300000  28.5200000  47.0330000  67.6520000
  30.9690000  49.0740000  60.9780000  28.7460000  48.0150000  61.2050000
  26.1470000  46.4630000  63.8660000  26.9520000  47.1400000  61.6640000
  26.1350000  46.0970000  66.4940000  29.3190000  47.3400000  68.0640000
  27.5410000  46.4820000  68.4140000  30.7900000  49.1750000  59.6030000
  31.7740000  49.3950000  61.3670000  28.5900000  48.1340000  59.8140000
  26.3330000  46.0000000  67.8290000  25.3250000  45.7730000  66.1180000
  27.6620000  46.4170000  69.3540000  31.7860000  49.7610000  58.7400000
  29.5660000  48.6990000  59.0040000  27.7880000  47.8160000  59.4130000
  25.6650000  45.6080000  68.3790000  31.5880000  49.8580000  57.4040000
  32.5960000  50.0850000  59.1150000  29.4020000  48.8250000  57.5820000
  30.3810000  49.3760000  56.8200000  32.2570000  50.2500000  56.8550000
  28.6020000  48.5180000  57.1700000  30.2600000  49.4400000  55.8790000
  29.4820000  55.6930000  61.2050000  29.3260000  55.8130000  59.8140000
  28.5010000  55.1360000  62.0360000  30.7130000  56.1810000  61.8100000
  28.5240000  55.4950000  59.4130000  30.3020000  56.3780000  59.0040000
  27.6880000  54.8190000  61.6640000  28.6810000  55.0340000  63.4240000
  31.7050000  56.7530000  60.9780000  30.8920000  56.0790000  63.1970000
  31.5260000  56.8540000  59.6030000  30.1380000  56.5030000  57.5820000
  27.6890000  54.4620000  64.2560000  29.9110000  55.5220000  64.0280000
  32.5100000  57.0740000  61.3670000  31.7060000  56.3960000  63.5700000
  32.5220000  57.4400000  58.7400000  29.3380000  56.1970000  57.1700000
  31.1170000  57.0540000  56.8200000  27.8670000  54.3610000  65.6300000
  26.8830000  54.1410000  63.8660000  30.0680000  55.4020000  65.4200000
  32.3240000  57.5370000  57.4040000  33.3320000  57.7640000  59.1150000
  30.9960000  57.1190000  55.8790000  26.8710000  53.7750000  66.4940000
  29.0920000  54.8370000  66.2290000  30.8690000  55.7200000  65.8200000
  32.9930000  57.9290000  56.8550000  27.0690000  53.6780000  67.8290000
  26.0610000  53.4510000  66.1180000  29.2560000  54.7120000  67.6520000
  28.2770000  54.1610000  68.4140000  26.4010000  53.2860000  68.3790000
  30.0550000  55.0180000  68.0640000  28.3980000  54.0960000  69.3540000
  28.7150000  53.5410000  19.0350000  28.5580000  53.6610000  17.6430000
  27.7330000  52.9840000  19.8660000  29.9450000  54.0290000  19.6390000
  27.7570000  53.3430000  17.2430000  29.5340000  54.2260000  16.8340000
  26.9200000  52.6670000  19.4930000  27.9130000  52.8820000  21.2530000
  30.9370000  54.6010000  18.8070000  30.1250000  53.9270000  21.0270000
  30.7590000  54.7020000  17.4320000  29.3700000  54.3510000  15.4110000
  26.9210000  52.3100000  22.0850000  29.1440000  53.3700000  21.8580000
  31.7430000  54.9220000  19.1970000  30.9380000  54.2440000  21.3990000
  31.7550000  55.2880000  16.5690000  28.5700000  54.0450000  14.9990000
  30.3490000  54.9020000  14.6490000  27.1000000  52.2090000  23.4600000
  26.1160000  51.9890000  21.6960000  29.3000000  53.2510000  23.2490000
  31.5570000  55.3850000  15.2340000  32.5640000  55.6120000  16.9450000
  30.2280000  54.9670000  13.7090000  26.1040000  51.6230000  24.3230000
  28.3240000  52.6850000  24.0590000  30.1010000  53.5680000  23.6500000
  32.2250000  55.7770000  14.6840000  26.3020000  51.5260000  25.6590000
  25.2940000  51.2990000  23.9480000  28.4880000  52.5600000  25.4810000
  27.5090000  52.0090000  26.2430000  25.6330000  51.1350000  26.2080000
  29.2880000  52.8660000  25.8930000  27.6300000  51.9440000  27.1840000
  31.6500000  69.7540000  92.1420000  31.8060000  69.6350000  93.5330000
  32.6310000  70.3110000  91.3110000  30.4190000  69.2660000  91.5370000
  32.6080000  69.9520000  93.9340000  30.8300000  69.0690000  94.3430000
  33.4450000  70.6290000  91.6830000  32.4520000  70.4130000  89.9230000
  29.4270000  68.6950000  92.3690000  30.2400000  69.3680000  90.1500000
  29.6060000  68.5930000  93.7440000  30.9940000  68.9440000  95.7650000
  33.4440000  70.9850000  89.0910000  31.2210000  69.9250000  89.3190000
  28.6220000  68.3730000  91.9800000  29.4260000  69.0510000  89.7770000
  28.6100000  68.0080000  94.6070000  31.7940000  69.2510000  96.1770000
  30.0150000  68.3930000  96.5270000  33.2650000  71.0860000  87.7170000
  34.2490000  71.3060000  89.4810000  31.0640000  70.0450000  87.9270000
  28.8080000  67.9100000  95.9430000  27.8000000  67.6840000  94.2320000
  30.1360000  68.3280000  97.4680000  34.2610000  71.6720000  86.8530000
  32.0400000  70.6100000  87.1180000  30.2630000  69.7270000  87.5270000
  28.1390000  67.5190000  96.4920000  34.0630000  71.7690000  85.5180000
  35.0710000  71.9960000  87.2290000  31.8770000  70.7350000  85.6950000
  32.8560000  71.2860000  84.9330000  34.7310000  72.1610000  84.9680000
  31.0770000  70.4290000  85.2830000  32.7340000  71.3510000  83.9930000
  29.4510000  61.2200000  19.0350000  29.2940000  61.3390000  17.6430000
  28.4700000  60.6630000  19.8660000  30.6820000  61.7080000  19.6390000
  28.4930000  61.0220000  17.2430000  30.2700000  61.9050000  16.8340000
  27.6560000  60.3450000  19.4930000  28.6490000  60.5610000  21.2530000
  31.6730000  62.2790000  18.8070000  30.8610000  61.6060000  21.0270000
  31.4950000  62.3800000  17.4320000  30.1060000  62.0300000  15.4110000
  27.6570000  59.9890000  22.0850000  29.8800000  61.0490000  21.8580000
  32.4790000  62.6000000  19.1970000  31.6740000  61.9230000  21.3990000
  32.4910000  62.9660000  16.5690000  29.3070000  61.7230000  14.9990000
  31.0850000  62.5810000  14.6490000  27.8360000  59.8880000  23.4600000
  26.8520000  59.6680000  21.6960000  30.0360000  60.9290000  23.2490000
  32.2930000  63.0640000  15.2340000  33.3010000  63.2900000  16.9450000
  30.9640000  62.6460000  13.7090000  26.8400000  59.3020000  24.3230000
  29.0600000  60.3640000  24.0590000  30.8380000  61.2470000  23.6500000
  32.9610000  63.4550000  14.6840000  27.0380000  59.2050000  25.6590000
  26.0300000  58.9780000  23.9480000  29.2240000  60.2390000  25.4810000
  28.2450000  59.6870000  26.2430000  26.3690000  58.8130000  26.2080000
  30.0240000  60.5450000  25.8930000  28.3660000  59.6230000  27.1840000
  32.3860000  77.4330000  92.1420000  32.5430000  77.3130000  93.5330000
  33.3670000  77.9900000  91.3110000  31.1550000  76.9450000  91.5370000
  33.3440000  77.6310000  93.9340000  31.5670000  76.7480000  94.3430000
  34.1810000  78.3070000  91.6830000  33.1880000  78.0920000  89.9230000
  30.1630000  76.3730000  92.3690000  30.9760000  77.0470000  90.1500000
  30.3420000  76.2720000  93.7440000  31.7300000  76.6230000  95.7650000
  34.1800000  78.6640000  89.0910000  31.9570000  77.6040000  89.3190000
  29.3580000  76.0520000  91.9800000  30.1620000  76.7290000  89.7770000
  29.3460000  75.6860000  94.6070000  32.5300000  76.9290000  96.1770000
  30.7510000  76.0720000  96.5270000  34.0010000  78.7650000  87.7170000
  34.9850000  78.9850000  89.4810000  31.8010000  77.7230000  87.9270000
  29.5440000  75.5890000  95.9430000  28.5360000  75.3620000  94.2320000
  30.8730000  76.0070000  97.4680000  34.9970000  79.3500000  86.8530000
  32.7770000  78.2890000  87.1180000  30.9990000  77.4060000  87.5270000
  28.8760000  75.1970000  96.4920000  34.7990000  79.4480000  85.5180000
  35.8070000  79.6740000  87.2290000  32.6130000  78.4140000  85.6950000
  33.5920000  78.9650000  84.9330000  35.4680000  79.8390000  84.9680000
  31.8130000  78.1080000  85.2830000  33.4710000  79.0300000  83.9930000
  33.1220000  85.1110000  92.1420000  33.2790000  84.9920000  93.5330000
  34.1030000  85.6690000  91.3110000  31.8910000  84.6230000  91.5370000
  34.0800000  85.3090000  93.9340000  32.3030000  84.4270000  94.3430000
  34.9170000  85.9860000  91.6830000  33.9240000  85.7710000  89.9230000
  30.8990000  84.0520000  92.3690000  31.7120000  84.7250000  90.1500000
  31.0780000  83.9510000  93.7440000  32.4670000  84.3010000  95.7650000
  34.9160000  86.3420000  89.0910000  32.6930000  85.2830000  89.3190000
  30.0940000  83.7310000  91.9800000  30.8990000  84.4080000  89.7770000
  30.0820000  83.3650000  94.6070000  33.2660000  84.6080000  96.1770000
  31.4880000  83.7500000  96.5270000  34.7370000  86.4430000  87.7170000
  35.7210000  86.6630000  89.4810000  32.5370000  85.4020000  87.9270000
  30.2800000  83.2680000  95.9430000  29.2720000  83.0410000  94.2320000
  31.6090000  83.6850000  97.4680000  35.7330000  87.0290000  86.8530000
  33.5130000  85.9670000  87.1180000  31.7350000  85.0840000  87.5270000
  29.6120000  82.8760000  96.4920000  35.5350000  87.1260000  85.5180000
  36.5430000  87.3530000  87.2290000  33.3490000  86.0930000  85.6950000
  34.3280000  86.6440000  84.9330000  36.2040000  87.5180000  84.9680000
  32.5490000  85.7860000  85.2830000  34.2070000  86.7090000  83.9930000
  31.3520000  76.4060000  21.8580000  31.5080000  76.2860000  23.2490000
  32.3330000  76.9630000  21.0270000  30.1210000  75.9180000  21.2530000
  32.3100000  76.6040000  23.6500000  30.5330000  75.7210000  24.0590000
  33.1470000  77.2800000  21.3990000  32.1540000  77.0650000  19.6390000
  29.1290000  75.3460000  22.0850000  29.9420000  76.0200000  19.8660000
  29.3080000  75.2450000  23.4600000  30.6960000  75.5960000  25.4810000
  33.1460000  77.6370000  18.8070000  30.9230000  76.5770000  19.0350000
  28.3240000  75.0250000  21.6960000  29.1280000  75.7030000  19.4930000
  28.3120000  74.6590000  24.3230000  31.4960000  75.9020000  25.8930000
  29.7170000  75.0450000  26.2430000  32.9670000  77.7380000  17.4320000
  33.9510000  77.9580000  19.1970000  30.7670000  76.6960000  17.6430000
  28.5100000  74.5620000  25.6590000  27.5020000  74.3350000  23.9480000
  29.8390000  74.9800000  27.1840000  33.9630000  78.3240000  16.5690000
  31.7420000  77.2620000  16.8340000  29.9650000  76.3790000  17.2430000
  27.8410000  74.1700000  26.2080000  33.7650000  78.4210000  15.2340000
  34.7730000  78.6470000  16.9450000  31.5790000  77.3870000  15.4110000
  32.5580000  77.9380000  14.6490000  34.4340000  78.8120000  14.6840000
  30.7790000  77.0810000  14.9990000  32.4360000  78.0030000  13.7090000
  31.9250000  83.1310000  47.1490000  31.7690000  83.2500000  45.7570000
  30.9440000  82.5730000  47.9790000  33.1560000  83.6190000  47.7530000
  30.9680000  82.9320000  45.3560000  32.7450000  83.8150000  44.9470000
  30.1310000  82.2560000  47.6070000  31.1240000  82.4710000  49.3670000
  34.1480000  84.1900000  46.9210000  33.3360000  83.5170000  49.1400000
  33.9700000  84.2910000  45.5460000  32.5810000  83.9410000  43.5250000
  30.1320000  81.9000000  50.1990000  32.3550000  82.9590000  49.9710000
  34.9540000  84.5110000  47.3100000  34.1490000  83.8340000  49.5130000
  34.9660000  84.8770000  44.6830000  31.7810000  83.6340000  43.1130000
  33.5600000  84.4920000  42.7630000  30.3100000  81.7990000  51.5740000
  29.3260000  81.5790000  49.8100000  32.5110000  82.8400000  51.3630000
  34.7680000  84.9740000  43.3480000  35.7750000  85.2010000  45.0580000
  33.4390000  84.5570000  41.8220000  29.3140000  81.2130000  52.4370000
  31.5350000  82.2750000  52.1730000  33.3120000  83.1580000  51.7630000
  35.4360000  85.3660000  42.7980000  29.5120000  81.1160000  53.7720000
  28.5050000  80.8890000  52.0610000  31.6990000  82.1490000  53.5950000
  30.7200000  81.5980000  54.3570000  28.8440000  80.7240000  54.3220000
  32.4990000  82.4560000  54.0070000  30.8410000  81.5330000  55.2970000
  32.4270000  86.4080000  61.2050000  32.2700000  86.5270000  59.8140000
  31.4460000  85.8500000  62.0360000  33.6580000  86.8950000  61.8100000
  31.4690000  86.2090000  59.4130000  33.2460000  87.0920000  59.0040000
  30.6320000  85.5330000  61.6640000  31.6250000  85.7480000  63.4240000
  34.6490000  87.4670000  60.9780000  33.8370000  86.7940000  63.1970000
  34.4710000  87.5680000  59.6030000  33.0820000  87.2170000  57.5820000
  30.6330000  85.1770000  64.2560000  32.8560000  86.2360000  64.0280000
  35.4550000  87.7880000  61.3670000  34.6500000  87.1110000  63.5700000
  35.4670000  88.1540000  58.7400000  32.2830000  86.9110000  57.1700000
  34.0610000  87.7690000  56.8200000  30.8120000  85.0760000  65.6300000
  29.8280000  84.8560000  63.8660000  33.0120000  86.1170000  65.4200000
  35.2690000  88.2510000  57.4040000  36.2770000  88.4780000  59.1150000
  33.9400000  87.8330000  55.8790000  29.8160000  84.4900000  66.4940000
  32.0360000  85.5520000  66.2290000  33.8140000  86.4340000  65.8200000
  35.9370000  88.6430000  56.8550000  30.0140000  84.3930000  67.8290000
  29.0060000  84.1660000  66.1180000  32.2000000  85.4260000  67.6520000
  31.2210000  84.8750000  68.4140000  29.3450000  84.0010000  68.3790000
  33.0000000  85.7330000  68.0640000  31.3420000  84.8100000  69.3540000
  33.4290000  92.9610000  89.3190000  33.2730000  93.0810000  87.9270000
  32.4480000  92.4040000  90.1500000  34.6600000  93.4490000  89.9230000
  32.4710000  92.7630000  87.5270000  34.2490000  93.6460000  87.1180000
  31.6350000  92.0870000  89.7770000  32.6280000  92.3020000  91.5370000
  35.6520000  94.0210000  89.0910000  34.8390000  93.3470000  91.3110000
  35.4730000  94.1220000  87.7170000  34.0850000  93.7710000  85.6950000
  31.6360000  91.7300000  92.3690000  33.8580000  92.7900000  92.1420000
  36.4570000  94.3420000  89.4810000  35.6530000  93.6640000  91.6830000
  36.4690000  94.7080000  86.8530000  33.2850000  93.4650000  85.2830000
  35.0640000  94.3220000  84.9330000  31.8140000  91.6290000  93.7440000
  30.8300000  91.4090000  91.9800000  34.0150000  92.6700000  93.5330000
  36.2710000  94.8050000  85.5180000  37.2790000  95.0320000  87.2290000
  34.9430000  94.3870000  83.9930000  30.8180000  91.0430000  94.6070000
  33.0390000  92.1050000  94.3430000  34.8160000  92.9880000  93.9340000
  36.9400000  95.1970000  84.9680000  31.0160000  90.9460000  95.9430000
  30.0080000  90.7190000  94.2320000  33.2030000  91.9800000  95.7650000
  32.2240000  91.4290000  96.5270000  30.3480000  90.5540000  96.4920000
  34.0020000  92.2860000  96.1770000  32.3450000  91.3640000  97.4680000
  33.5920000  93.9150000  64.0280000  33.7480000  93.7950000  65.4200000
  34.5730000  94.4720000  63.1970000  32.3610000  93.4270000  63.4240000
  34.5500000  94.1130000  65.8200000  32.7720000  93.2300000  66.2290000
  35.3870000  94.7890000  63.5700000  34.3940000  94.5740000  61.8100000
  31.3690000  92.8550000  64.2560000  32.1820000  93.5290000  62.0360000
  31.5480000  92.7540000  65.6300000  32.9360000  93.1050000  67.6520000
  35.3860000  95.1460000  60.9780000  33.1630000  94.0860000  61.2050000
  30.5640000  92.5340000  63.8660000  31.3680000  93.2120000  61.6640000
  30.5520000  92.1680000  66.4940000  33.7360000  93.4110000  68.0640000
  31.9570000  92.5540000  68.4140000  35.2070000  95.2470000  59.6030000
  36.1910000  95.4670000  61.3670000  33.0060000  94.2060000  59.8140000
  30.7500000  92.0710000  67.8290000  29.7420000  91.8440000  66.1180000
  32.0780000  92.4890000  69.3540000  36.2030000  95.8330000  58.7400000
  33.9820000  94.7710000  59.0040000  32.2050000  93.8880000  59.4130000
  30.0810000  91.6790000  68.3790000  36.0050000  95.9300000  57.4040000
  37.0130000  96.1570000  59.1150000  33.8190000  94.8960000  57.5820000
  34.7980000  95.4470000  56.8200000  36.6730000  96.3220000  56.8550000
  33.0190000  94.5900000  57.1700000  34.6760000  95.5120000  55.8790000
  33.0910000  90.6380000  49.9710000  33.2470000  90.5190000  51.3630000
  34.0720000  91.1950000  49.1400000  31.8600000  90.1500000  49.3670000
  34.0480000  90.8360000  51.7630000  32.2710000  89.9530000  52.1730000
  34.8850000  91.5120000  49.5130000  33.8920000  91.2970000  47.7530000
  30.8680000  89.5780000  50.1990000  31.6800000  90.2520000  47.9790000
  31.0470000  89.4770000  51.5740000  32.4350000  89.8280000  53.5950000
  34.8840000  91.8690000  46.9210000  32.6620000  90.8090000  47.1490000
  30.0630000  89.2570000  49.8100000  30.8670000  89.9350000  47.6070000
  30.0510000  88.8920000  52.4370000  33.2350000  90.1340000  54.0070000
  31.4560000  89.2770000  54.3570000  34.7060000  91.9700000  45.5460000
  35.6900000  92.1900000  47.3100000  32.5050000  90.9290000  45.7570000
  30.2490000  88.7940000  53.7720000  29.2410000  88.5680000  52.0610000
  31.5770000  89.2120000  55.2970000  35.7020000  92.5560000  44.6830000
  33.4810000  91.4940000  44.9470000  31.7040000  90.6110000  45.3560000
  29.5800000  88.4030000  54.3220000  35.5040000  92.6530000  43.3480000
  36.5110000  92.8800000  45.0580000  33.3170000  91.6190000  43.5250000
  34.2960000  92.1700000  42.7630000  36.1720000  93.0450000  42.7980000
  32.5170000  91.3130000  43.1130000  34.1750000  92.2350000  41.8220000
  24.7270000   7.2980000  21.8580000  24.8830000   7.1790000  23.2490000
  25.7080000   7.8560000  21.0270000  23.4960000   6.8100000  21.2530000
  25.6850000   7.4970000  23.6500000  23.9070000   6.6140000  24.0590000
  26.5220000   8.1730000  21.3990000  25.5290000   7.9580000  19.6390000
  22.5040000   6.2390000  22.0850000  23.3170000   6.9120000  19.8660000
  22.6830000   6.1380000  23.4600000  24.0710000   6.4880000  25.4810000
  26.5210000   8.5290000  18.8070000  24.2980000   7.4700000  19.0350000
  21.6990000   5.9180000  21.6960000  22.5030000   6.5950000  19.4930000
  21.6870000   5.5520000  24.3230000  24.8710000   6.7950000  25.8930000
  23.0920000   5.9370000  26.2430000  26.3420000   8.6300000  17.4320000
  27.3260000   8.8500000  19.1970000  24.1410000   7.5890000  17.6430000
  21.8850000   5.4550000  25.6590000  20.8770000   5.2280000  23.9480000
  23.2130000   5.8720000  27.1840000  27.3380000   9.2160000  16.5690000
  25.1170000   8.1540000  16.8340000  23.3400000   7.2710000  17.2430000
  21.2160000   5.0630000  26.2080000  27.1400000   9.3130000  15.2340000
  28.1480000   9.5400000  16.9450000  24.9540000   8.2800000  15.4110000
  25.9330000   8.8310000  14.6490000  27.8080000   9.7050000  14.6840000
  24.1540000   7.9730000  14.9990000  25.8110000   8.8960000  13.7090000
  24.7990000  10.7460000  33.0920000  24.6430000  10.8660000  31.7000000
  23.8180000  10.1890000  33.9230000  26.0300000  11.2340000  33.6960000
  23.8410000  10.5480000  31.3000000  25.6190000  11.4310000  30.8900000
  23.0050000   9.8720000  33.5500000  23.9970000  10.0870000  35.3100000
  27.0220000  11.8060000  32.8640000  26.2090000  11.1320000  35.0840000
  26.8430000  11.9070000  31.4890000  25.4550000  11.5560000  29.4680000
  23.0050000   9.5160000  36.1420000  25.2280000  10.5750000  35.9140000
  27.8270000  12.1270000  33.2530000  27.0230000  11.4500000  35.4560000
  27.8390000  12.4930000  30.6260000  24.6550000  11.2500000  29.0560000
  26.4340000  12.1080000  28.7060000  23.1840000   9.4150000  37.5170000
  22.2000000   9.1950000  35.7530000  25.3850000  10.4560000  37.3060000
  27.6410000  12.5900000  29.2910000  28.6490000  12.8170000  31.0020000
  26.3130000  12.1720000  27.7660000  22.1880000   8.8290000  38.3800000
  24.4090000   9.8900000  38.1160000  26.1860000  10.7730000  37.7070000
  28.3100000  12.9820000  28.7410000  22.3860000   8.7320000  39.7150000
  21.3780000   8.5050000  38.0050000  24.5730000   9.7650000  39.5380000
  23.5940000   9.2140000  40.3000000  21.7180000   8.3400000  40.2650000
  25.3720000  10.0720000  39.9500000  23.7150000   9.1490000  41.2410000
  23.7970000   4.1930000   4.9780000  23.6400000   4.3120000   3.5870000
  22.8150000   3.6360000   5.8090000  25.0270000   4.6810000   5.5830000
  22.8390000   3.9950000   3.1860000  24.6160000   4.8780000   2.7770000
  22.0020000   3.3180000   5.4360000  22.9950000   3.5340000   7.1960000
  26.0190000   5.2520000   4.7500000  25.2070000   4.5790000   6.9700000
  25.8410000   5.3530000   3.3760000  24.4520000   5.0030000   1.3540000
  22.0030000   2.9620000   8.0280000  24.2260000   4.0220000   7.8010000
  26.8250000   5.5730000   5.1400000  26.0200000   4.8960000   7.3430000
  26.8370000   5.9390000   2.5130000  23.6530000   4.6960000   0.9420000
  25.4310000   5.5540000   0.5920000  22.1820000   2.8610000   9.4030000
  21.1980000   2.6410000   7.6390000  24.3820000   3.9020000   9.1920000
  26.6390000   6.0370000   1.1770000  27.6470000   6.2630000   2.8880000
  25.3100000   5.6190000  -0.3480000  21.1860000   2.2750000  10.2660000
  23.4060000   3.3370000  10.0020000  25.1830000   4.2200000   9.5930000
  27.3070000   6.4280000   0.6280000  21.3840000   2.1780000  11.6020000
  20.3760000   1.9510000   9.8910000  23.5700000   3.2120000  11.4250000
  22.5910000   2.6600000  12.1860000  20.7150000   1.7860000  12.1510000
  24.3700000   3.5180000  11.8360000  22.7120000   2.5960000  13.1270000
  26.2310000  17.1290000  64.0280000  26.3870000  17.0090000  65.4200000
  27.2120000  17.6860000  63.1970000  25.0000000  16.6410000  63.4240000
  27.1890000  17.3270000  65.8200000  25.4110000  16.4440000  66.2290000
  28.0250000  18.0030000  63.5700000  27.0330000  17.7880000  61.8100000
  24.0080000  16.0690000  64.2560000  24.8210000  16.7430000  62.0360000
  24.1870000  15.9680000  65.6300000  25.5750000  16.3190000  67.6520000
  28.0240000  18.3600000  60.9780000  25.8020000  17.3000000  61.2050000
  23.2030000  15.7480000  63.8660000  24.0070000  16.4260000  61.6640000
  23.1910000  15.3820000  66.4940000  26.3750000  16.6250000  68.0640000
  24.5960000  15.7680000  68.4140000  27.8460000  18.4610000  59.6030000
  28.8300000  18.6810000  61.3670000  25.6450000  17.4200000  59.8140000
  23.3890000  15.2850000  67.8290000  22.3810000  15.0580000  66.1180000
  24.7170000  15.7030000  69.3540000  28.8420000  19.0470000  58.7400000
  26.6210000  17.9850000  59.0040000  24.8440000  17.1020000  59.4130000
  22.7200000  14.8930000  68.3790000  28.6440000  19.1440000  57.4040000
  29.6520000  19.3710000  59.1150000  26.4570000  18.1100000  57.5820000
  27.4360000  18.6610000  56.8200000  29.3120000  19.5360000  56.8550000
  25.6580000  17.8040000  57.1700000  27.3150000  18.7260000  55.8790000
  26.7320000  20.4060000  78.0850000  26.8880000  20.2860000  79.4760000
  27.7130000  20.9630000  77.2540000  25.5010000  19.9180000  77.4800000
  27.6900000  20.6040000  79.8770000  25.9130000  19.7210000  80.2860000
  28.5270000  21.2800000  77.6270000  27.5340000  21.0650000  75.8670000
  24.5090000  19.3460000  78.3130000  25.3220000  20.0200000  76.0930000
  24.6880000  19.2450000  79.6870000  26.0760000  19.5960000  81.7090000
  28.5260000  21.6370000  75.0350000  26.3030000  20.5770000  75.2620000
  23.7040000  19.0250000  77.9230000  24.5080000  19.7020000  75.7200000
  23.6920000  18.6590000  80.5500000  26.8760000  19.9020000  82.1210000
  25.0970000  19.0450000  82.4710000  28.3470000  21.7380000  73.6600000
  29.3310000  21.9580000  75.4240000  26.1470000  20.6960000  73.8710000
  23.8900000  18.5620000  81.8860000  22.8820000  18.3350000  80.1750000
  25.2180000  18.9800000  83.4110000  29.3430000  22.3230000  72.7970000
  27.1220000  21.2620000  73.0610000  25.3450000  20.3790000  73.4700000
  23.2210000  18.1700000  82.4350000  29.1450000  22.4210000  71.4610000
  30.1530000  22.6470000  73.1720000  26.9590000  21.3870000  71.6380000
  27.9380000  21.9380000  70.8770000  29.8130000  22.8120000  70.9120000
  26.1590000  21.0810000  71.2270000  27.8160000  22.0030000  69.9360000
  25.0340000  15.1480000  19.0350000  24.8780000  15.2680000  17.6430000
  24.0530000  14.5910000  19.8660000  26.2650000  15.6360000  19.6390000
  24.0760000  14.9500000  17.2430000  25.8540000  15.8330000  16.8340000
  23.2390000  14.2740000  19.4930000  24.2320000  14.4890000  21.2530000
  27.2570000  16.2080000  18.8070000  26.4440000  15.5340000  21.0270000
  27.0780000  16.3090000  17.4320000  25.6900000  15.9580000  15.4110000
  23.2400000  13.9170000  22.0850000  25.4630000  14.9770000  21.8580000
  28.0620000  16.5290000  19.1970000  27.2580000  15.8510000  21.3990000
  28.0740000  16.8950000  16.5690000  24.8900000  15.6520000  14.9990000
  26.6690000  16.5090000  14.6490000  23.4190000  13.8160000  23.4600000
  22.4350000  13.5960000  21.6960000  25.6200000  14.8580000  23.2490000
  27.8760000  16.9920000  15.2340000  28.8840000  17.2190000  16.9450000
  26.5480000  16.5740000  13.7090000  22.4230000  13.2300000  24.3230000
  24.6440000  14.2920000  24.0590000  26.4210000  15.1750000  23.6500000
  28.5450000  17.3840000  14.6840000  22.6210000  13.1330000  25.6590000
  21.6130000  12.9060000  23.9480000  24.8070000  14.1670000  25.4810000
  23.8280000  13.6160000  26.2430000  21.9530000  12.7420000  26.2080000
  25.6070000  14.4730000  25.8930000  23.9500000  13.5510000  27.1840000
  25.5350000  18.4250000  33.0920000  25.3790000  18.5450000  31.7000000
  24.5540000  17.8680000  33.9230000  26.7660000  18.9130000  33.6960000
  24.5770000  18.2270000  31.3000000  26.3550000  19.1100000  30.8900000
  23.7410000  17.5510000  33.5500000  24.7340000  17.7660000  35.3100000
  27.7580000  19.4850000  32.8640000  26.9450000  18.8110000  35.0840000
  27.5790000  19.5860000  31.4890000  26.1910000  19.2350000  29.4680000
  23.7420000  17.1940000  36.1420000  25.9640000  18.2540000  35.9140000
  28.5630000  19.8060000  33.2530000  27.7590000  19.1280000  35.4560000
  28.5750000  20.1720000  30.6260000  25.3910000  18.9290000  29.0560000
  27.1700000  19.7860000  28.7060000  23.9200000  17.0930000  37.5170000
  22.9360000  16.8730000  35.7530000  26.1210000  18.1340000  37.3060000
  28.3770000  20.2690000  29.2910000  29.3850000  20.4960000  31.0020000
  27.0490000  19.8510000  27.7660000  22.9240000  16.5070000  38.3800000
  25.1450000  17.5690000  38.1160000  26.9220000  18.4520000  37.7070000
  29.0460000  20.6600000  28.7410000  23.1220000  16.4100000  39.7150000
  22.1140000  16.1830000  38.0050000  25.3090000  17.4440000  39.5380000
  24.3300000  16.8930000  40.3000000  22.4540000  16.0180000  40.2650000
  26.1080000  17.7500000  39.9500000  24.4510000  16.8280000  41.2410000
  26.0370000  21.7020000  47.1490000  25.8800000  21.8210000  45.7570000
  25.0550000  21.1450000  47.9790000  27.2670000  22.1900000  47.7530000
  25.0790000  21.5040000  45.3560000  26.8560000  22.3870000  44.9470000
  24.2420000  20.8270000  47.6070000  25.2350000  21.0430000  49.3670000
  28.2590000  22.7610000  46.9210000  27.4470000  22.0880000  49.1400000
  28.0810000  22.8630000  45.5460000  26.6920000  22.5120000  43.5250000
  24.2430000  20.4710000  50.1990000  26.4660000  21.5310000  49.9710000
  29.0650000  23.0830000  47.3100000  28.2600000  22.4050000  49.5130000
  29.0770000  23.4480000  44.6830000  25.8920000  22.2050000  43.1130000
  27.6710000  23.0630000  42.7630000  24.4220000  20.3700000  51.5740000
  23.4380000  20.1500000  49.8100000  26.6220000  21.4110000  51.3630000
  28.8790000  23.5460000  43.3480000  29.8860000  23.7720000  45.0580000
  27.5500000  23.1280000  41.8220000  23.4260000  19.7840000  52.4370000
  25.6460000  20.8460000  52.1730000  27.4230000  21.7290000  51.7630000
  29.5470000  23.9370000  42.7980000  23.6230000  19.6870000  53.7720000
  22.6160000  19.4600000  52.0610000  25.8100000  20.7210000  53.5950000
  24.8310000  20.1700000  54.3570000  22.9550000  19.2950000  54.3220000
  26.6100000  21.0270000  54.0070000  24.9520000  20.1050000  55.2970000
  24.5330000  11.8710000   4.9780000  24.3760000  11.9910000   3.5870000
  23.5520000  11.3140000   5.8090000  25.7640000  12.3590000   5.5830000
  23.5750000  11.6730000   3.1860000  25.3520000  12.5560000   2.7770000
  22.7380000  10.9970000   5.4360000  23.7310000  11.2120000   7.1960000
  26.7550000  12.9310000   4.7500000  25.9430000  12.2570000   6.9700000
  26.5770000  13.0320000   3.3760000  25.1880000  12.6810000   1.3540000
  22.7390000  10.6410000   8.0280000  24.9620000  11.7000000   7.8010000
  27.5610000  13.2520000   5.1400000  26.7560000  12.5750000   7.3430000
  27.5730000  13.6180000   2.5130000  24.3890000  12.3750000   0.9420000
  26.1670000  13.2320000   0.5920000  22.9180000  10.5390000   9.4030000
  21.9340000  10.3190000   7.6390000  25.1180000  11.5810000   9.1920000
  27.3750000  13.7150000   1.1770000  28.3830000  13.9420000   2.8880000
  26.0460000  13.2970000  -0.3480000  21.9220000   9.9540000  10.2660000
  24.1420000  11.0150000  10.0020000  25.9200000  11.8980000   9.5930000
  28.0430000  14.1070000   0.6280000  22.1200000   9.8560000  11.6020000
  21.1120000   9.6300000   9.8910000  24.3060000  10.8900000  11.4250000
  23.3270000  10.3390000  12.1860000  21.4510000   9.4650000  12.1510000
  25.1060000  11.1970000  11.8360000  23.4480000  10.2740000  13.1270000
  26.9670000  24.8070000  64.0280000  27.1230000  24.6880000  65.4200000
  27.9480000  25.3650000  63.1970000  25.7360000  24.3190000  63.4240000
  27.9250000  25.0060000  65.8200000  26.1470000  24.1230000  66.2290000
  28.7620000  25.6820000  63.5700000  27.7690000  25.4670000  61.8100000
  24.7440000  23.7480000  64.2560000  25.5570000  24.4210000  62.0360000
  24.9230000  23.6470000  65.6300000  26.3110000  23.9970000  67.6520000
  28.7610000  26.0380000  60.9780000  26.5380000  24.9790000  61.2050000
  23.9390000  23.4270000  63.8660000  24.7430000  24.1040000  61.6640000
  23.9270000  23.0610000  66.4940000  27.1110000  24.3040000  68.0640000
  25.3320000  23.4460000  68.4140000  28.5820000  26.1390000  59.6030000
  29.5660000  26.3590000  61.3670000  26.3810000  25.0980000  59.8140000
  24.1250000  22.9640000  67.8290000  23.1170000  22.7370000  66.1180000
  25.4530000  23.3810000  69.3540000  29.5780000  26.7250000  58.7400000
  27.3570000  25.6630000  59.0040000  25.5800000  24.7810000  59.4130000
  23.4560000  22.5720000  68.3790000  29.3800000  26.8220000  57.4040000
  30.3880000  27.0490000  59.1150000  27.1930000  25.7890000  57.5820000
  28.1720000  26.3400000  56.8200000  30.0480000  27.2140000  56.8550000
  26.3940000  25.4820000  57.1700000  28.0510000  26.4050000  55.8790000
  27.4680000  28.0840000  78.0850000  27.6250000  27.9650000  79.4760000
  28.4490000  28.6420000  77.2540000  26.2370000  27.5960000  77.4800000
  28.4260000  28.2820000  79.8770000  26.6490000  27.4000000  80.2860000
  29.2630000  28.9590000  77.6270000  28.2700000  28.7440000  75.8670000
  25.2450000  27.0250000  78.3130000  26.0580000  27.6980000  76.0930000
  25.4240000  26.9240000  79.6870000  26.8120000  27.2740000  81.7090000
  29.2620000  29.3150000  75.0350000  27.0390000  28.2560000  75.2620000
  24.4400000  26.7040000  77.9230000  25.2440000  27.3810000  75.7200000
  24.4280000  26.3380000  80.5500000  27.6120000  27.5810000  82.1210000
  25.8330000  26.7230000  82.4710000  29.0830000  29.4160000  73.6600000
  30.0670000  29.6360000  75.4240000  26.8830000  28.3750000  73.8710000
  24.6260000  26.2410000  81.8860000  23.6180000  26.0140000  80.1750000
  25.9550000  26.6580000  83.4110000  30.0790000  30.0020000  72.7970000
  27.8590000  28.9400000  73.0610000  26.0810000  28.0570000  73.4700000
  23.9580000  25.8490000  82.4350000  29.8810000  30.0990000  71.4610000
  30.8890000  30.3260000  73.1720000  27.6950000  29.0660000  71.6380000
  28.6740000  29.6170000  70.8770000  30.5500000  30.4910000  70.9120000
  26.8950000  28.7590000  71.2270000  28.5530000  29.6820000  69.9360000
  25.7700000  22.8270000  19.0350000  25.6140000  22.9460000  17.6430000
  24.7890000  22.2700000  19.8660000  27.0010000  23.3150000  19.6390000
  24.8120000  22.6290000  17.2430000  26.5900000  23.5120000  16.8340000
  23.9750000  21.9520000  19.4930000  24.9680000  22.1680000  21.2530000
  27.9930000  23.8860000  18.8070000  27.1800000  23.2130000  21.0270000
  27.8140000  23.9870000  17.4320000  26.4260000  23.6370000  15.4110000
  23.9760000  21.5960000  22.0850000  26.1990000  22.6560000  21.8580000
  28.7980000  24.2080000  19.1970000  27.9940000  23.5300000  21.3990000
  28.8100000  24.5730000  16.5690000  25.6260000  23.3300000  14.9990000
  27.4050000  24.1880000  14.6490000  24.1550000  21.4950000  23.4600000
  23.1710000  21.2750000  21.6960000  26.3560000  22.5360000  23.2490000
  28.6120000  24.6710000  15.2340000  29.6200000  24.8970000  16.9450000
  27.2840000  24.2530000  13.7090000  23.1590000  20.9090000  24.3230000
  25.3800000  21.9710000  24.0590000  27.1570000  22.8540000  23.6500000
  29.2810000  25.0620000  14.6840000  23.3570000  20.8120000  25.6590000
  22.3490000  20.5850000  23.9480000  25.5440000  21.8460000  25.4810000
  24.5650000  21.2940000  26.2430000  22.6890000  20.4200000  26.2080000
  26.3430000  22.1520000  25.8930000  24.6860000  21.2300000  27.1840000
  26.7000000  25.9320000  35.9140000  26.8570000  25.8130000  37.3060000
  27.6820000  26.4900000  35.0840000  25.4700000  25.4440000  35.3100000
  27.6580000  26.1310000  37.7070000  25.8810000  25.2480000  38.1160000
  28.4950000  26.8070000  35.4560000  27.5020000  26.5920000  33.6960000
  24.4780000  24.8730000  36.1420000  25.2900000  25.5460000  33.9230000
  24.6560000  24.7720000  37.5170000  26.0450000  25.1220000  39.5380000
  28.4940000  27.1630000  32.8640000  26.2710000  26.1040000  33.0920000
  23.6720000  24.5520000  35.7530000  24.4770000  25.2290000  33.5500000
  23.6600000  24.1860000  38.3800000  26.8450000  25.4290000  39.9500000
  25.0660000  24.5710000  40.3000000  28.3150000  27.2640000  31.4890000
  29.2990000  27.4840000  33.2530000  26.1150000  26.2230000  31.7000000
  23.8580000  24.0890000  39.7150000  22.8510000  23.8620000  38.0050000
  25.1870000  24.5060000  41.2410000  29.3110000  27.8500000  30.6260000
  27.0910000  26.7880000  30.8900000  25.3140000  25.9050000  31.3000000
  23.1900000  23.6970000  40.2650000  29.1140000  27.9470000  29.2910000
  30.1210000  28.1740000  31.0020000  26.9270000  26.9140000  29.4680000
  27.9060000  27.4650000  28.7060000  29.7820000  28.3390000  28.7410000
  26.1270000  26.6070000  29.0560000  27.7850000  27.5300000  27.7660000
  26.7730000  29.3810000  47.1490000  26.6160000  29.5000000  45.7570000
  25.7920000  28.8230000  47.9790000  28.0030000  29.8680000  47.7530000
  25.8150000  29.1820000  45.3560000  27.5920000  30.0650000  44.9470000
  24.9780000  28.5060000  47.6070000  25.9710000  28.7210000  49.3670000
  28.9950000  30.4400000  46.9210000  28.1830000  29.7670000  49.1400000
  28.8170000  30.5410000  45.5460000  27.4280000  30.1900000  43.5250000
  24.9790000  28.1500000  50.1990000  27.2020000  29.2090000  49.9710000
  29.8010000  30.7610000  47.3100000  28.9960000  30.0840000  49.5130000
  29.8130000  31.1270000  44.6830000  26.6290000  29.8840000  43.1130000
  28.4070000  30.7420000  42.7630000  25.1580000  28.0490000  51.5740000
  24.1740000  27.8290000  49.8100000  27.3580000  29.0900000  51.3630000
  29.6150000  31.2240000  43.3480000  30.6230000  31.4510000  45.0580000
  28.2860000  30.8060000  41.8220000  24.1620000  27.4630000  52.4370000
  26.3820000  28.5250000  52.1730000  28.1600000  29.4070000  51.7630000
  30.2830000  31.6160000  42.7980000  24.3600000  27.3660000  53.7720000
  23.3520000  27.1390000  52.0610000  26.5460000  28.3990000  53.5950000
  25.5670000  27.8480000  54.3570000  23.6910000  26.9740000  54.3220000
  27.3460000  28.7060000  54.0070000  25.6880000  27.7830000  55.2970000
  25.2690000  19.5500000   4.9780000  25.1120000  19.6690000   3.5870000
  24.2880000  18.9930000   5.8090000  26.5000000  20.0380000   5.5830000
  24.3110000  19.3520000   3.1860000  26.0880000  20.2350000   2.7770000
  23.4740000  18.6760000   5.4360000  24.4670000  18.8910000   7.1960000
  27.4920000  20.6100000   4.7500000  26.6790000  19.9360000   6.9700000
  27.3130000  20.7110000   3.3760000  25.9250000  20.3600000   1.3540000
  23.4750000  18.3190000   8.0280000  25.6980000  19.3790000   7.8010000
  28.2970000  20.9310000   5.1400000  27.4930000  20.2530000   7.3430000
  28.3090000  21.2960000   2.5130000  25.1250000  20.0540000   0.9420000
  26.9040000  20.9110000   0.5920000  23.6540000  18.2180000   9.4030000
  22.6700000  17.9980000   7.6390000  25.8540000  19.2590000   9.1920000
  28.1110000  21.3940000   1.1770000  29.1190000  21.6200000   2.8880000
  26.7820000  20.9760000  -0.3480000  22.6580000  17.6320000  10.2660000
  24.8780000  18.6940000  10.0020000  26.6560000  19.5770000   9.5930000
  28.7790000  21.7850000   0.6280000  22.8560000  17.5350000  11.6020000
  21.8480000  17.3080000   9.8910000  25.0420000  18.5690000  11.4250000
  24.0630000  18.0180000  12.1860000  22.1870000  17.1430000  12.1510000
  25.8420000  18.8750000  11.8360000  24.1840000  17.9530000  13.1270000
  27.7030000  32.4860000  64.0280000  27.8590000  32.3670000  65.4200000
  28.6840000  33.0430000  63.1970000  26.4720000  31.9980000  63.4240000
  28.6610000  32.6840000  65.8200000  26.8830000  31.8010000  66.2290000
  29.4980000  33.3610000  63.5700000  28.5050000  33.1450000  61.8100000
  25.4800000  31.4270000  64.2560000  26.2930000  32.1000000  62.0360000
  25.6590000  31.3250000  65.6300000  27.0470000  31.6760000  67.6520000
  29.4970000  33.7170000  60.9780000  27.2740000  32.6570000  61.2050000
  24.6750000  31.1050000  63.8660000  25.4790000  31.7830000  61.6640000
  24.6630000  30.7400000  66.4940000  27.8470000  31.9820000  68.0640000
  26.0680000  31.1250000  68.4140000  29.3180000  33.8180000  59.6030000
  30.3020000  34.0380000  61.3670000  27.1180000  32.7770000  59.8140000
  24.8610000  30.6420000  67.8290000  23.8530000  30.4160000  66.1180000
  26.1890000  31.0600000  69.3540000  30.3140000  34.4040000  58.7400000
  28.0930000  33.3420000  59.0040000  26.3160000  32.4590000  59.4130000
  24.1920000  30.2510000  68.3790000  30.1160000  34.5010000  57.4040000
  31.1240000  34.7280000  59.1150000  27.9300000  33.4670000  57.5820000
  28.9090000  34.0180000  56.8200000  30.7840000  34.8930000  56.8550000
  27.1300000  33.1610000  57.1700000  28.7870000  34.0830000  55.8790000
  27.7750000  35.9340000  75.2620000  27.6190000  36.0540000  73.8710000
  26.7940000  35.3770000  76.0930000  29.0060000  36.4220000  75.8670000
  26.8170000  35.7360000  73.4700000  28.5950000  36.6190000  73.0610000
  25.9810000  35.0600000  75.7200000  26.9730000  35.2750000  77.4800000
  29.9980000  36.9940000  75.0350000  29.1850000  36.3200000  77.2540000
  29.8190000  37.0950000  73.6600000  28.4310000  36.7440000  71.6380000
  25.9820000  34.7030000  78.3130000  28.2040000  35.7630000  78.0850000
  30.8030000  37.3150000  75.4240000  29.9990000  36.6370000  77.6270000
  30.8150000  37.6810000  72.7970000  27.6310000  36.4380000  71.2270000
  29.4100000  37.2950000  70.8770000  26.1600000  34.6020000  79.6870000
  25.1760000  34.3820000  77.9230000  28.3610000  35.6430000  79.4760000
  30.6170000  37.7780000  71.4610000  31.6250000  38.0050000  73.1720000
  29.2890000  37.3600000  69.9360000  25.1640000  34.0160000  80.5500000
  27.3850000  35.0780000  80.2860000  29.1620000  35.9610000  79.8770000
  31.2860000  38.1700000  70.9120000  25.3620000  33.9190000  81.8860000
  24.3540000  33.6920000  80.1750000  27.5490000  34.9530000  81.7090000
  26.5700000  34.4020000  82.4710000  24.6940000  33.5270000  82.4350000
  28.3480000  35.2590000  82.1210000  26.6910000  34.3370000  83.4110000
  28.7050000  39.0400000  92.1420000  28.8620000  38.9200000  93.5330000
  29.6870000  39.5970000  91.3110000  27.4750000  38.5520000  91.5370000
  29.6630000  39.2380000  93.9340000  27.8860000  38.3550000  94.3430000
  30.5000000  39.9140000  91.6830000  29.5070000  39.6990000  89.9230000
  26.4830000  37.9800000  92.3690000  27.2950000  38.6540000  90.1500000
  26.6610000  37.8790000  93.7440000  28.0500000  38.2300000  95.7650000
  30.4990000  40.2710000  89.0910000  28.2760000  39.2110000  89.3190000
  25.6770000  37.6590000  91.9800000  26.4820000  38.3370000  89.7770000
  25.6650000  37.2930000  94.6070000  28.8500000  38.5360000  96.1770000
  27.0710000  37.6790000  96.5270000  30.3210000  40.3720000  87.7170000
  31.3050000  40.5920000  89.4810000  28.1200000  39.3300000  87.9270000
  25.8630000  37.1960000  95.9430000  24.8560000  36.9690000  94.2320000
  27.1920000  37.6140000  97.4680000  31.3170000  40.9570000  86.8530000
  29.0960000  39.8960000  87.1180000  27.3190000  39.0130000  87.5270000
  25.1950000  36.8040000  96.4920000  31.1190000  41.0550000  85.5180000
  32.1260000  41.2810000  87.2290000  28.9320000  40.0210000  85.6950000
  29.9110000  40.5720000  84.9330000  31.7870000  41.4460000  84.9680000
  28.1320000  39.7150000  85.2830000  29.7900000  40.6370000  83.9930000
  27.0080000  33.7820000  33.0920000  26.8510000  33.9020000  31.7000000
  26.0260000  33.2250000  33.9230000  28.2380000  34.2700000  33.6960000
  26.0500000  33.5840000  31.3000000  27.8270000  34.4670000  30.8900000
  25.2130000  32.9080000  33.5500000  26.2060000  33.1230000  35.3100000
  29.2300000  34.8420000  32.8640000  28.4180000  34.1680000  35.0840000
  29.0520000  34.9430000  31.4890000  27.6630000  34.5920000  29.4680000
  25.2140000  32.5510000  36.1420000  27.4370000  33.6110000  35.9140000
  30.0360000  35.1630000  33.2530000  29.2310000  34.4850000  35.4560000
  30.0480000  35.5290000  30.6260000  26.8630000  34.2860000  29.0560000
  28.6420000  35.1430000  28.7060000  25.3930000  32.4500000  37.5170000
  24.4090000  32.2300000  35.7530000  27.5930000  33.4920000  37.3060000
  29.8500000  35.6260000  29.2910000  30.8570000  35.8530000  31.0020000
  28.5210000  35.2080000  27.7660000  24.3970000  31.8640000  38.3800000
  26.6170000  32.9260000  38.1160000  28.3940000  33.8090000  37.7070000
  30.5180000  36.0180000  28.7410000  24.5940000  31.7670000  39.7150000
  23.5870000  31.5410000  38.0050000  26.7810000  32.8010000  39.5380000
  25.8020000  32.2500000  40.3000000  23.9260000  31.3760000  40.2650000
  27.5810000  33.1070000  39.9500000  25.9230000  32.1850000  41.2410000
  26.0050000  27.2290000   4.9780000  25.8490000  27.3480000   3.5870000
  25.0240000  26.6710000   5.8090000  27.2360000  27.7170000   5.5830000
  25.0470000  27.0300000   3.1860000  26.8240000  27.9130000   2.7770000
  24.2100000  26.3540000   5.4360000  25.2030000  26.5690000   7.1960000
  28.2280000  28.2880000   4.7500000  27.4150000  27.6150000   6.9700000
  28.0490000  28.3890000   3.3760000  26.6610000  28.0390000   1.3540000
  24.2110000  25.9980000   8.0280000  26.4340000  27.0570000   7.8010000
  29.0330000  28.6090000   5.1400000  28.2290000  27.9320000   7.3430000
  29.0450000  28.9750000   2.5130000  25.8610000  27.7320000   0.9420000
  27.6400000  28.5900000   0.5920000  24.3900000  25.8970000   9.4030000
  23.4060000  25.6770000   7.6390000  26.5900000  26.9380000   9.1920000
  28.8470000  29.0720000   1.1770000  29.8550000  29.2990000   2.8880000
  27.5190000  28.6550000  -0.3480000  23.3940000  25.3110000  10.2660000
  25.6150000  26.3730000  10.0020000  27.3920000  27.2550000   9.5930000
  29.5160000  29.4640000   0.6280000  23.5920000  25.2140000  11.6020000
  22.5840000  24.9870000   9.8910000  25.7780000  26.2470000  11.4250000
  24.7990000  25.6960000  12.1860000  22.9240000  24.8220000  12.1510000
  26.5780000  26.5540000  11.8360000  24.9210000  25.6310000  13.1270000
  26.9350000  30.3340000  21.8580000  27.0920000  30.2150000  23.2490000
  27.9160000  30.8910000  21.0270000  25.7040000  29.8460000  21.2530000
  27.8930000  30.5320000  23.6500000  26.1160000  29.6490000  24.0590000
  28.7300000  31.2090000  21.3990000  27.7370000  30.9930000  19.6390000
  24.7130000  29.2750000  22.0850000  25.5250000  29.9480000  19.8660000
  24.8910000  29.1740000  23.4600000  26.2800000  29.5240000  25.4810000
  28.7290000  31.5650000  18.8070000  26.5060000  30.5050000  19.0350000
  23.9070000  28.9530000  21.6960000  24.7120000  29.6310000  19.4930000
  23.8950000  28.5880000  24.3230000  27.0790000  29.8310000  25.8930000
  25.3010000  28.9730000  26.2430000  28.5500000  31.6660000  17.4320000
  29.5340000  31.8860000  19.1970000  26.3500000  30.6250000  17.6430000
  24.0930000  28.4900000  25.6590000  23.0850000  28.2640000  23.9480000
  25.4220000  28.9080000  27.1840000  29.5460000  32.2520000  16.5690000
  27.3260000  31.1900000  16.8340000  25.5480000  30.3070000  17.2430000
  23.4250000  28.0990000  26.2080000  29.3480000  32.3490000  15.2340000
  30.3560000  32.5760000  16.9450000  27.1620000  31.3150000  15.4110000
  28.1410000  31.8670000  14.6490000  30.0170000  32.7410000  14.6840000
  26.3620000  31.0090000  14.9990000  28.0200000  31.9310000  13.7090000
  27.5090000  37.0590000  47.1490000  27.3520000  37.1790000  45.7570000
  26.5280000  36.5020000  47.9790000  28.7400000  37.5470000  47.7530000
  26.5510000  36.8610000  45.3560000  28.3280000  37.7440000  44.9470000
  25.7140000  36.1850000  47.6070000  26.7070000  36.4000000  49.3670000
  29.7320000  38.1190000  46.9210000  28.9190000  37.4450000  49.1400000
  29.5530000  38.2200000  45.5460000  28.1640000  37.8690000  43.5250000
  25.7150000  35.8280000  50.1990000  27.9380000  36.8880000  49.9710000
  30.5370000  38.4400000  47.3100000  29.7320000  37.7620000  49.5130000
  30.5490000  38.8060000  44.6830000  27.3650000  37.5630000  43.1130000
  29.1430000  38.4200000  42.7630000  25.8940000  35.7270000  51.5740000
  24.9100000  35.5070000  49.8100000  28.0940000  36.7680000  51.3630000
  30.3510000  38.9030000  43.3480000  31.3590000  39.1300000  45.0580000
  29.0220000  38.4850000  41.8220000  24.8980000  35.1410000  52.4370000
  27.1180000  36.2030000  52.1730000  28.8960000  37.0860000  51.7630000
  31.0190000  39.2950000  42.7980000  25.0960000  35.0440000  53.7720000
  24.0880000  34.8170000  52.0610000  27.2820000  36.0780000  53.5950000
  26.3030000  35.5270000  54.3570000  24.4270000  34.6520000  54.3220000
  28.0820000  36.3840000  54.0070000  26.4240000  35.4620000  55.2970000
  28.4390000  40.1650000  64.0280000  28.5960000  40.0450000  65.4200000
  29.4200000  40.7220000  63.1970000  27.2080000  39.6770000  63.4240000
  29.3970000  40.3630000  65.8200000  27.6200000  39.4800000  66.2290000
  30.2340000  41.0390000  63.5700000  29.2410000  40.8240000  61.8100000
  26.2160000  39.1050000  64.2560000  27.0290000  39.7790000  62.0360000
  26.3950000  39.0040000  65.6300000  27.7830000  39.3550000  67.6520000
  30.2330000  41.3950000  60.9780000  28.0100000  40.3360000  61.2050000
  25.4110000  38.7840000  63.8660000  26.2150000  39.4610000  61.6640000
  25.3990000  38.4180000  66.4940000  28.5830000  39.6610000  68.0640000
  26.8040000  38.8040000  68.4140000  30.0540000  41.4970000  59.6030000
  31.0380000  41.7170000  61.3670000  27.8540000  40.4550000  59.8140000
  25.5970000  38.3210000  67.8290000  24.5890000  38.0940000  66.1180000
  26.9260000  38.7390000  69.3540000  31.0500000  42.0820000  58.7400000
  28.8300000  41.0210000  59.0040000  27.0520000  40.1380000  59.4130000
  24.9290000  37.9290000  68.3790000  30.8520000  42.1800000  57.4040000
  31.8600000  42.4060000  59.1150000  28.6660000  41.1460000  57.5820000
  29.6450000  41.6970000  56.8200000  31.5210000  42.5710000  56.8550000
  27.8660000  40.8400000  57.1700000  29.5240000  41.7620000  55.8790000
  28.5110000  43.6130000  75.2620000  28.3550000  43.7320000  73.8710000
  27.5300000  43.0550000  76.0930000  29.7420000  44.1010000  75.8670000
  27.5540000  43.4150000  73.4700000  29.3310000  44.2970000  73.0610000
  26.7170000  42.7380000  75.7200000  27.7100000  42.9530000  77.4800000
  30.7340000  44.6720000  75.0350000  29.9220000  43.9990000  77.2540000
  30.5550000  44.7730000  73.6600000  29.1670000  44.4230000  71.6380000
  26.7180000  42.3820000  78.3130000  28.9400000  43.4410000  78.0850000
  31.5390000  44.9930000  75.4240000  30.7350000  44.3160000  77.6270000
  31.5510000  45.3590000  72.7970000  28.3670000  44.1160000  71.2270000
  30.1460000  44.9740000  70.8770000  26.8960000  42.2810000  79.6870000
  25.9120000  42.0610000  77.9230000  29.0970000  43.3220000  79.4760000
  31.3530000  45.4560000  71.4610000  32.3610000  45.6830000  73.1720000
  30.0250000  45.0390000  69.9360000  25.9000000  41.6950000  80.5500000
  28.1210000  42.7570000  80.2860000  29.8980000  43.6400000  79.8770000
  32.0220000  45.8480000  70.9120000  26.0980000  41.5980000  81.8860000
  25.0900000  41.3710000  80.1750000  28.2850000  42.6320000  81.7090000
  27.3060000  42.0800000  82.4710000  25.4300000  41.2060000  82.4350000
  29.0840000  42.9380000  82.1210000  27.4270000  42.0160000  83.4110000
  29.0130000  46.8900000  89.3190000  28.8560000  47.0090000  87.9270000
  28.0310000  46.3320000  90.1500000  30.2430000  47.3780000  89.9230000
  28.0550000  46.6910000  87.5270000  29.8320000  47.5740000  87.1180000
  27.2180000  46.0150000  89.7770000  28.2110000  46.2300000  91.5370000
  31.2350000  47.9490000  89.0910000  30.4230000  47.2760000  91.3110000
  31.0570000  48.0500000  87.7170000  29.6680000  47.7000000  85.6950000
  27.2190000  45.6590000  92.3690000  29.4420000  46.7180000  92.1420000
  32.0410000  48.2700000  89.4810000  31.2360000  47.5930000  91.6830000
  32.0530000  48.6360000  86.8530000  28.8680000  47.3930000  85.2830000
  30.6470000  48.2510000  84.9330000  27.3980000  45.5580000  93.7440000
  26.4140000  45.3380000  91.9800000  29.5980000  46.5990000  93.5330000
  31.8550000  48.7330000  85.5180000  32.8620000  48.9600000  87.2290000
  30.5260000  48.3160000  83.9930000  26.4020000  44.9720000  94.6070000
  28.6220000  46.0340000  94.3430000  30.3990000  46.9160000  93.9340000
  32.5230000  49.1250000  84.9680000  26.6000000  44.8750000  95.9430000
  25.5920000  44.6480000  94.2320000  28.7860000  45.9080000  95.7650000
  27.8070000  45.3570000  96.5270000  25.9310000  44.4830000  96.4920000
  29.5860000  46.2150000  96.1770000  27.9280000  45.2920000  97.4680000
  27.2420000  38.1840000  19.0350000  27.0860000  38.3030000  17.6430000
  26.2610000  37.6270000  19.8660000  28.4730000  38.6720000  19.6390000
  26.2850000  37.9860000  17.2430000  28.0620000  38.8690000  16.8340000
  25.4480000  37.3100000  19.4930000  26.4410000  37.5250000  21.2530000
  29.4650000  39.2440000  18.8070000  28.6530000  38.5700000  21.0270000
  29.2860000  39.3450000  17.4320000  27.8980000  38.9940000  15.4110000
  25.4490000  36.9530000  22.0850000  27.6710000  38.0130000  21.8580000
  30.2700000  39.5650000  19.1970000  29.4660000  38.8870000  21.3990000
  30.2820000  39.9310000  16.5690000  27.0980000  38.6880000  14.9990000
  28.8770000  39.5450000  14.6490000  25.6270000  36.8520000  23.4600000
  24.6430000  36.6320000  21.6960000  27.8280000  37.8930000  23.2490000
  30.0840000  40.0280000  15.2340000  31.0920000  40.2550000  16.9450000
  28.7560000  39.6100000  13.7090000  24.6310000  36.2660000  24.3230000
  26.8520000  37.3280000  24.0590000  28.6290000  38.2110000  23.6500000
  30.7530000  40.4190000  14.6840000  24.8290000  36.1690000  25.6590000
  23.8220000  35.9420000  23.9480000  27.0160000  37.2030000  25.4810000
  26.0370000  36.6520000  26.2430000  24.1610000  35.7770000  26.2080000
  27.8160000  37.5090000  25.8930000  26.1580000  36.5870000  27.1840000
  27.7440000  41.4610000  33.0920000  27.5870000  41.5800000  31.7000000
  26.7620000  40.9040000  33.9230000  28.9740000  41.9490000  33.6960000
  26.7860000  41.2630000  31.3000000  28.5630000  42.1460000  30.8900000
  25.9490000  40.5860000  33.5500000  26.9420000  40.8020000  35.3100000
  29.9660000  42.5200000  32.8640000  29.1540000  41.8470000  35.0840000
  29.7880000  42.6210000  31.4890000  28.3990000  42.2710000  29.4680000
  25.9500000  40.2300000  36.1420000  28.1730000  41.2900000  35.9140000
  30.7720000  42.8420000  33.2530000  29.9670000  42.1640000  35.4560000
  30.7840000  43.2070000  30.6260000  27.6000000  41.9640000  29.0560000
  29.3780000  42.8220000  28.7060000  26.1290000  40.1290000  37.5170000
  25.1450000  39.9090000  35.7530000  28.3290000  41.1700000  37.3060000
  30.5860000  43.3050000  29.2910000  31.5940000  43.5310000  31.0020000
  29.2570000  42.8870000  27.7660000  25.1330000  39.5430000  38.3800000
  27.3530000  40.6050000  38.1160000  29.1300000  41.4880000  37.7070000
  31.2540000  43.6960000  28.7410000  25.3310000  39.4460000  39.7150000
  24.3230000  39.2190000  38.0050000  27.5170000  40.4800000  39.5380000
  26.5380000  39.9290000  40.3000000  24.6620000  39.0540000  40.2650000
  28.3170000  40.7860000  39.9500000  26.6590000  39.8640000  41.2410000
  30.1780000  54.3970000  92.1420000  30.3340000  54.2770000  93.5330000
  31.1590000  54.9540000  91.3110000  28.9470000  53.9090000  91.5370000
  31.1360000  54.5950000  93.9340000  29.3580000  53.7120000  94.3430000
  31.9720000  55.2710000  91.6830000  30.9800000  55.0560000  89.9230000
  27.9550000  53.3370000  92.3690000  28.7680000  54.0110000  90.1500000
  28.1340000  53.2360000  93.7440000  29.5220000  53.5870000  95.7650000
  31.9710000  55.6280000  89.0910000  29.7490000  54.5680000  89.3190000
  27.1500000  53.0160000  91.9800000  27.9540000  53.6940000  89.7770000
  27.1380000  52.6500000  94.6070000  30.3220000  53.8930000  96.1770000
  28.5430000  53.0360000  96.5270000  31.7930000  55.7290000  87.7170000
  32.7770000  55.9490000  89.4810000  29.5920000  54.6880000  87.9270000
  27.3360000  52.5530000  95.9430000  26.3280000  52.3260000  94.2320000
  28.6640000  52.9710000  97.4680000  32.7890000  56.3150000  86.8530000
  30.5680000  55.2530000  87.1180000  28.7910000  54.3700000  87.5270000
  26.6670000  52.1620000  96.4920000  32.5910000  56.4120000  85.5180000
  33.5990000  56.6390000  87.2290000  30.4040000  55.3780000  85.6950000
  31.3830000  55.9290000  84.9330000  33.2590000  56.8040000  84.9680000
  29.6050000  55.0720000  85.2830000  31.2620000  55.9940000  83.9930000
  29.6760000  51.1200000  78.0850000  29.8330000  51.0010000  79.4760000
  30.6580000  51.6770000  77.2540000  28.4460000  50.6320000  77.4800000
  30.6340000  51.3180000  79.8770000  28.8570000  50.4350000  80.2860000
  31.4710000  51.9950000  77.6270000  30.4780000  51.7790000  75.8670000
  27.4540000  50.0610000  78.3130000  28.2660000  50.7340000  76.0930000
  27.6320000  49.9590000  79.6870000  29.0210000  50.3100000  81.7090000
  31.4700000  52.3510000  75.0350000  29.2470000  51.2910000  75.2620000
  26.6480000  49.7390000  77.9230000  27.4530000  50.4170000  75.7200000
  26.6360000  49.3740000  80.5500000  29.8210000  50.6170000  82.1210000
  28.0420000  49.7590000  82.4710000  31.2910000  52.4520000  73.6600000
  32.2750000  52.6720000  75.4240000  29.0910000  51.4110000  73.8710000
  26.8340000  49.2760000  81.8860000  25.8270000  49.0500000  80.1750000
  28.1630000  49.6940000  83.4110000  32.2880000  53.0380000  72.7970000
  30.0670000  51.9760000  73.0610000  28.2900000  51.0930000  73.4700000
  26.1660000  48.8850000  82.4350000  32.0900000  53.1350000  71.4610000
  33.0970000  53.3620000  73.1720000  29.9030000  52.1010000  71.6380000
  30.8820000  52.6520000  70.8770000  32.7580000  53.5270000  70.9120000
  29.1030000  51.7950000  71.2270000  30.7610000  52.7170000  69.9360000
  26.7410000  34.9070000   4.9780000  26.5850000  35.0270000   3.5870000
  25.7600000  34.3500000   5.8090000  27.9720000  35.3950000   5.5830000
  25.7830000  34.7090000   3.1860000  27.5610000  35.5920000   2.7770000
  24.9460000  34.0330000   5.4360000  25.9390000  34.2480000   7.1960000
  28.9640000  35.9670000   4.7500000  28.1510000  35.2930000   6.9700000
  28.7850000  36.0680000   3.3760000  27.3970000  35.7170000   1.3540000
  24.9470000  33.6760000   8.0280000  27.1700000  34.7360000   7.8010000
  29.7690000  36.2880000   5.1400000  28.9650000  35.6100000   7.3430000
  29.7810000  36.6540000   2.5130000  26.5970000  35.4110000   0.9420000
  28.3760000  36.2680000   0.5920000  25.1260000  33.5750000   9.4030000
  24.1420000  33.3550000   7.6390000  27.3270000  34.6160000   9.1920000
  29.5830000  36.7510000   1.1770000  30.5910000  36.9780000   2.8880000
  28.2550000  36.3330000  -0.3480000  24.1300000  32.9890000  10.2660000
  26.3510000  34.0510000  10.0020000  28.1280000  34.9340000   9.5930000
  30.2520000  37.1430000   0.6280000  24.3280000  32.8920000  11.6020000
  23.3200000  32.6650000   9.8910000  26.5140000  33.9260000  11.4250000
  25.5360000  33.3750000  12.1860000  23.6600000  32.5010000  12.1510000
  27.3140000  34.2320000  11.8360000  25.6570000  33.3100000  13.1270000
  28.4800000  49.1390000  33.0920000  28.3230000  49.2590000  31.7000000
  27.4990000  48.5820000  33.9230000  29.7110000  49.6270000  33.6960000
  27.5220000  48.9410000  31.3000000  29.2990000  49.8240000  30.8900000
  26.6850000  48.2650000  33.5500000  27.6780000  48.4800000  35.3100000
  30.7020000  50.1990000  32.8640000  29.8900000  49.5250000  35.0840000
  30.5240000  50.3000000  31.4890000  29.1350000  49.9490000  29.4680000
  26.6860000  47.9090000  36.1420000  28.9090000  48.9680000  35.9140000
  31.5080000  50.5200000  33.2530000  30.7030000  49.8430000  35.4560000
  31.5200000  50.8860000  30.6260000  28.3360000  49.6430000  29.0560000
  30.1140000  50.5010000  28.7060000  26.8650000  47.8080000  37.5170000
  25.8810000  47.5870000  35.7530000  29.0650000  48.8490000  37.3060000
  31.3220000  50.9830000  29.2910000  32.3300000  51.2100000  31.0020000
  29.9930000  50.5650000  27.7660000  25.8690000  47.2220000  38.3800000
  28.0890000  48.2830000  38.1160000  29.8670000  49.1660000  37.7070000
  31.9900000  51.3750000  28.7410000  26.0670000  47.1240000  39.7150000
  25.0590000  46.8980000  38.0050000  28.2530000  48.1580000  39.5380000
  27.2740000  47.6070000  40.3000000  25.3980000  46.7330000  40.2650000
  29.0530000  48.4650000  39.9500000  27.3950000  47.5420000  41.2410000
  28.4080000  45.6910000  21.8580000  28.5640000  45.5720000  23.2490000
  29.3890000  46.2490000  21.0270000  27.1770000  45.2030000  21.2530000
  29.3650000  45.8900000  23.6500000  27.5880000  45.0070000  24.0590000
  30.2020000  46.5660000  21.3990000  29.2090000  46.3510000  19.6390000
  26.1850000  44.6320000  22.0850000  26.9970000  45.3050000  19.8660000
  26.3630000  44.5310000  23.4600000  27.7520000  44.8810000  25.4810000
  30.2010000  46.9220000  18.8070000  27.9790000  45.8630000  19.0350000
  25.3790000  44.3110000  21.6960000  26.1840000  44.9880000  19.4930000
  25.3670000  43.9450000  24.3230000  28.5520000  45.1880000  25.8930000
  26.7730000  44.3300000  26.2430000  30.0230000  47.0230000  17.4320000
  31.0070000  47.2430000  19.1970000  27.8220000  45.9820000  17.6430000
  25.5650000  43.8480000  25.6590000  24.5580000  43.6210000  23.9480000
  26.8940000  44.2650000  27.1840000  31.0190000  47.6090000  16.5690000
  28.7980000  46.5470000  16.8340000  27.0210000  45.6640000  17.2430000
  24.8970000  43.4560000  26.2080000  30.8210000  47.7060000  15.2340000
  31.8280000  47.9330000  16.9450000  28.6340000  46.6730000  15.4110000
  29.6130000  47.2240000  14.6490000  31.4890000  48.0980000  14.6840000
  27.8340000  46.3660000  14.9990000  29.4920000  47.2890000  13.7090000
  29.4100000  52.2450000  49.9710000  29.5670000  52.1260000  51.3630000
  30.3910000  52.8020000  49.1400000  28.1790000  51.7570000  49.3670000
  30.3680000  52.4430000  51.7630000  28.5910000  51.5600000  52.1730000
  31.2050000  53.1200000  49.5130000  30.2120000  52.9040000  47.7530000
  27.1870000  51.1850000  50.1990000  28.0000000  51.8590000  47.9790000
  27.3660000  51.0840000  51.5740000  28.7540000  51.4350000  53.5950000
  31.2040000  53.4760000  46.9210000  28.9810000  52.4160000  47.1490000
  26.3820000  50.8640000  49.8100000  27.1860000  51.5420000  47.6070000
  26.3700000  50.4990000  52.4370000  29.5540000  51.7410000  54.0070000
  27.7750000  50.8840000  54.3570000  31.0250000  53.5770000  45.5460000
  32.0090000  53.7970000  47.3100000  28.8250000  52.5360000  45.7570000
  26.5680000  50.4010000  53.7720000  25.5600000  50.1750000  52.0610000
  27.8970000  50.8190000  55.2970000  32.0210000  54.1630000  44.6830000
  29.8010000  53.1010000  44.9470000  28.0230000  52.2180000  45.3560000
  25.9000000  50.0100000  54.3220000  31.8230000  54.2600000  43.3480000
  32.8310000  54.4870000  45.0580000  29.6370000  53.2260000  43.5250000
  30.6160000  53.7770000  42.7630000  32.4920000  54.6520000  42.7980000
  28.8370000  52.9200000  43.1130000  30.4950000  53.8420000  41.8220000
  27.9060000  42.4150000   7.8010000  28.0630000  42.2950000   9.1920000
  28.8870000  42.9720000   6.9700000  26.6750000  41.9270000   7.1960000
  28.8640000  42.6130000   9.5930000  27.0870000  41.7300000  10.0020000
  29.7010000  43.2890000   7.3430000  28.7080000  43.0740000   5.5830000
  25.6840000  41.3550000   8.0280000  26.4960000  42.0280000   5.8090000
  25.8620000  41.2540000   9.4030000  27.2510000  41.6050000  11.4250000
  29.7000000  43.6450000   4.7500000  27.4770000  42.5860000   4.9780000
  24.8780000  41.0340000   7.6390000  25.6830000  41.7110000   5.4360000
  24.8660000  40.6680000  10.2660000  28.0500000  41.9110000  11.8360000
  26.2720000  41.0530000  12.1860000  29.5210000  43.7460000   3.3760000
  30.5050000  43.9660000   5.1400000  27.3210000  42.7050000   3.5870000
  25.0640000  40.5710000  11.6020000  24.0560000  40.3440000   9.8910000
  26.3930000  40.9890000  13.1270000  30.5170000  44.3320000   2.5130000
  28.2970000  43.2710000   2.7770000  26.5190000  42.3880000   3.1860000
  24.3960000  40.1790000  12.1510000  30.3190000  44.4290000   1.1770000
  31.3270000  44.6560000   2.8880000  28.1330000  43.3960000   1.3540000
  29.1120000  43.9470000   0.5920000  30.9880000  44.8210000   0.6280000
  27.3330000  43.0890000   0.9420000  28.9910000  44.0120000  -0.3480000
  30.4130000  58.7990000  78.0850000  30.5690000  58.6790000  79.4760000
  31.3940000  59.3560000  77.2540000  29.1820000  58.3110000  77.4800000
  31.3700000  58.9970000  79.8770000  29.5930000  58.1140000  80.2860000
  32.2070000  59.6730000  77.6270000  31.2140000  59.4580000  75.8670000
  28.1900000  57.7390000  78.3130000  29.0020000  58.4130000  76.0930000
  28.3690000  57.6380000  79.6870000  29.7570000  57.9890000  81.7090000
  32.2060000  60.0300000  75.0350000  29.9840000  58.9700000  75.2620000
  27.3850000  57.4180000  77.9230000  28.1890000  58.0950000  75.7200000
  27.3730000  57.0520000  80.5500000  30.5570000  58.2950000  82.1210000
  28.7780000  57.4380000  82.4710000  32.0280000  60.1310000  73.6600000
  33.0120000  60.3510000  75.4240000  29.8270000  59.0890000  73.8710000
  27.5700000  56.9550000  81.8860000  26.5630000  56.7280000  80.1750000
  28.8990000  57.3730000  83.4110000  33.0240000  60.7160000  72.7970000
  30.8030000  59.6550000  73.0610000  29.0260000  58.7720000  73.4700000
  26.9020000  56.5630000  82.4350000  32.8260000  60.8140000  71.4610000
  33.8330000  61.0400000  73.1720000  30.6390000  59.7800000  71.6380000
  31.6180000  60.3310000  70.8770000  33.4940000  61.2050000  70.9120000
  29.8390000  59.4740000  71.2270000  31.4970000  60.3960000  69.9360000
  30.4850000  62.2470000  89.3190000  30.3280000  62.3660000  87.9270000
  29.5040000  61.6890000  90.1500000  31.7160000  62.7350000  89.9230000
  29.5270000  62.0490000  87.5270000  31.3040000  62.9320000  87.1180000
  28.6900000  61.3720000  89.7770000  29.6830000  61.5880000  91.5370000
  32.7080000  63.3060000  89.0910000  31.8950000  62.6330000  91.3110000
  32.5290000  63.4070000  87.7170000  31.1400000  63.0570000  85.6950000
  28.6910000  61.0160000  92.3690000  30.9140000  62.0760000  92.1420000
  33.5130000  63.6270000  89.4810000  32.7090000  62.9500000  91.6830000
  33.5250000  63.9930000  86.8530000  30.3410000  62.7500000  85.2830000
  32.1190000  63.6080000  84.9330000  28.8700000  60.9150000  93.7440000
  27.8860000  60.6950000  91.9800000  31.0700000  61.9560000  93.5330000
  33.3270000  64.0900000  85.5180000  34.3350000  64.3170000  87.2290000
  31.9980000  63.6730000  83.9930000  27.8740000  60.3290000  94.6070000
  30.0940000  61.3910000  94.3430000  31.8720000  62.2740000  93.9340000
  33.9950000  64.4820000  84.9680000  28.0720000  60.2320000  95.9430000
  27.0640000  60.0050000  94.2320000  30.2580000  61.2660000  95.7650000
  29.2790000  60.7140000  96.5270000  27.4030000  59.8400000  96.4920000
  31.0580000  61.5720000  96.1770000  29.4000000  60.6500000  97.4680000
  30.7200000  66.6490000  75.2620000  30.5630000  66.7680000  73.8710000
  29.7390000  66.0910000  76.0930000  31.9500000  67.1370000  75.8670000
  29.7620000  66.4500000  73.4700000  31.5390000  67.3330000  73.0610000
  28.9250000  65.7740000  75.7200000  29.9180000  65.9890000  77.4800000
  32.9420000  67.7080000  75.0350000  32.1300000  67.0350000  77.2540000
  32.7640000  67.8090000  73.6600000  31.3750000  67.4590000  71.6380000
  28.9260000  65.4180000  78.3130000  31.1490000  66.4770000  78.0850000
  33.7480000  68.0290000  75.4240000  32.9430000  67.3520000  77.6270000
  33.7600000  68.3950000  72.7970000  30.5760000  67.1520000  71.2270000
  32.3540000  68.0100000  70.8770000  29.1050000  65.3170000  79.6870000
  28.1210000  65.0970000  77.9230000  31.3050000  66.3580000  79.4760000
  33.5620000  68.4920000  71.4610000  34.5700000  68.7190000  73.1720000
  32.2330000  68.0750000  69.9360000  28.1090000  64.7310000  80.5500000
  30.3290000  65.7930000  80.2860000  32.1070000  66.6750000  79.8770000
  34.2300000  68.8840000  70.9120000  28.3070000  64.6340000  81.8860000
  27.2990000  64.4070000  80.1750000  30.4930000  65.6670000  81.7090000
  29.5140000  65.1160000  82.4710000  27.6380000  64.2420000  82.4350000
  31.2930000  65.9740000  82.1210000  29.6350000  65.0510000  83.4110000
  29.7170000  60.0950000  47.1490000  29.5610000  60.2140000  45.7570000
  28.7360000  59.5380000  47.9790000  30.9480000  60.5830000  47.7530000
  28.7590000  59.8970000  45.3560000  30.5370000  60.7800000  44.9470000
  27.9220000  59.2200000  47.6070000  28.9150000  59.4360000  49.3670000
  31.9400000  61.1540000  46.9210000  31.1270000  60.4810000  49.1400000
  31.7610000  61.2560000  45.5460000  30.3730000  60.9050000  43.5250000
  27.9230000  58.8640000  50.1990000  30.1460000  59.9240000  49.9710000
  32.7450000  61.4760000  47.3100000  31.9410000  60.7980000  49.5130000
  32.7570000  61.8410000  44.6830000  29.5730000  60.5980000  43.1130000
  31.3520000  61.4560000  42.7630000  28.1020000  58.7630000  51.5740000
  27.1180000  58.5430000  49.8100000  30.3030000  59.8040000  51.3630000
  32.5590000  61.9390000  43.3480000  33.5670000  62.1650000  45.0580000
  31.2310000  61.5210000  41.8220000  27.1060000  58.1770000  52.4370000
  29.3270000  59.2390000  52.1730000  31.1040000  60.1220000  51.7630000
  33.2280000  62.3300000  42.7980000  27.3040000  58.0800000  53.7720000
  26.2960000  57.8530000  52.0610000  29.4910000  59.1140000  53.5950000
  28.5120000  58.5630000  54.3570000  26.6360000  57.6880000  54.3220000
  30.2900000  59.4200000  54.0070000  28.6330000  58.4980000  55.2970000
  30.6470000  63.2000000  64.0280000  30.8040000  63.0810000  65.4200000
  31.6290000  63.7580000  63.1970000  29.4170000  62.7120000  63.4240000
  31.6050000  63.3990000  65.8200000  29.8280000  62.5160000  66.2290000
  32.4420000  64.0750000  63.5700000  31.4490000  63.8600000  61.8100000
  28.4250000  62.1410000  64.2560000  29.2370000  62.8140000  62.0360000
  28.6030000  62.0400000  65.6300000  29.9920000  62.3900000  67.6520000
  32.4410000  64.4310000  60.9780000  30.2180000  63.3720000  61.2050000
  27.6190000  61.8200000  63.8660000  28.4240000  62.4970000  61.6640000
  27.6070000  61.4540000  66.4940000  30.7920000  62.6970000  68.0640000
  29.0130000  61.8390000  68.4140000  32.2620000  64.5320000  59.6030000
  33.2460000  64.7520000  61.3670000  30.0620000  63.4910000  59.8140000
  27.8050000  61.3570000  67.8290000  26.7980000  61.1300000  66.1180000
  29.1340000  61.7740000  69.3540000  33.2580000  65.1180000  58.7400000
  31.0380000  64.0560000  59.0040000  29.2610000  63.1740000  59.4130000
  27.1370000  60.9650000  68.3790000  33.0610000  65.2150000  57.4040000
  34.0680000  65.4420000  59.1150000  30.8740000  64.1820000  57.5820000
  31.8530000  64.7330000  56.8200000  33.7290000  65.6070000  56.8550000
  30.0740000  63.8750000  57.1700000  31.7320000  64.7980000  55.8790000
  29.6450000  56.6470000  35.9140000  29.8010000  56.5270000  37.3060000
  30.6260000  57.2040000  35.0840000  28.4140000  56.1590000  35.3100000
  30.6030000  56.8450000  37.7070000  28.8250000  55.9620000  38.1160000
  31.4400000  57.5210000  35.4560000  30.4470000  57.3060000  33.6960000
  27.4220000  55.5870000  36.1420000  28.2350000  56.2610000  33.9230000
  27.6010000  55.4860000  37.5170000  28.9890000  55.8370000  39.5380000
  31.4390000  57.8780000  32.8640000  29.2160000  56.8180000  33.0920000
  26.6170000  55.2660000  35.7530000  27.4210000  55.9440000  33.5500000
  26.6050000  54.9000000  38.3800000  29.7890000  56.1430000  39.9500000
  28.0100000  55.2860000  40.3000000  31.2600000  57.9790000  31.4890000
  32.2440000  58.1990000  33.2530000  29.0590000  56.9370000  31.7000000
  26.8030000  54.8030000  39.7150000  25.7950000  54.5760000  38.0050000
  28.1310000  55.2210000  41.2410000  32.2560000  58.5650000  30.6260000
  30.0350000  57.5030000  30.8900000  28.2580000  56.6200000  31.3000000
  26.1340000  54.4110000  40.2650000  32.0580000  58.6620000  29.2910000
  33.0660000  58.8890000  31.0020000  29.8720000  57.6280000  29.4680000
  30.8510000  58.1790000  28.7060000  32.7260000  59.0530000  28.7410000
  29.0720000  57.3220000  29.0560000  30.7290000  58.2440000  27.7660000
  28.2130000  50.2640000   4.9780000  28.0570000  50.3840000   3.5870000
  27.2320000  49.7070000   5.8090000  29.4440000  50.7520000   5.5830000
  27.2560000  50.0660000   3.1860000  29.0330000  50.9490000   2.7770000
  26.4190000  49.3900000   5.4360000  27.4120000  49.6050000   7.1960000
  30.4360000  51.3240000   4.7500000  29.6240000  50.6500000   6.9700000
  30.2570000  51.4250000   3.3760000  28.8690000  51.0740000   1.3540000
  26.4200000  49.0340000   8.0280000  28.6420000  50.0930000   7.8010000
  31.2410000  51.6450000   5.1400000  30.4370000  50.9680000   7.3430000
  31.2530000  52.0110000   2.5130000  28.0690000  50.7680000   0.9420000
  29.8480000  51.6250000   0.5920000  26.5980000  48.9320000   9.4030000
  25.6140000  48.7120000   7.6390000  28.7990000  49.9740000   9.1920000
  31.0550000  52.1080000   1.1770000  32.0630000  52.3350000   2.8880000
  29.7270000  51.6900000  -0.3480000  25.6020000  48.3470000  10.2660000
  27.8230000  49.4080000  10.0020000  29.6000000  50.2910000   9.5930000
  31.7240000  52.5000000   0.6280000  25.8000000  48.2490000  11.6020000
  24.7930000  48.0230000   9.8910000  27.9870000  49.2830000  11.4250000
  27.0080000  48.7320000  12.1860000  25.1320000  47.8580000  12.1510000
  28.7870000  49.5900000  11.8360000  27.1290000  48.6670000  13.1270000
  30.3810000  64.3250000  35.9140000  30.5370000  64.2060000  37.3060000
  31.3620000  64.8830000  35.0840000  29.1500000  63.8370000  35.3100000
  31.3390000  64.5240000  37.7070000  29.5620000  63.6410000  38.1160000
  32.1760000  65.2000000  35.4560000  31.1830000  64.9850000  33.6960000
  28.1580000  63.2660000  36.1420000  28.9710000  63.9390000  33.9230000
  28.3370000  63.1650000  37.5170000  29.7250000  63.5150000  39.5380000
  32.1750000  65.5560000  32.8640000  29.9520000  64.4970000  33.0920000
  27.3530000  62.9450000  35.7530000  28.1570000  63.6220000  33.5500000
  27.3410000  62.5790000  38.3800000  30.5250000  63.8220000  39.9500000
  28.7460000  62.9640000  40.3000000  31.9960000  65.6570000  31.4890000
  32.9800000  65.8770000  33.2530000  29.7960000  64.6160000  31.7000000
  27.5390000  62.4820000  39.7150000  26.5310000  62.2550000  38.0050000
  28.8680000  62.8990000  41.2410000  32.9920000  66.2430000  30.6260000
  30.7710000  65.1810000  30.8900000  28.9940000  64.2980000  31.3000000
  26.8710000  62.0900000  40.2650000  32.7940000  66.3400000  29.2910000
  33.8020000  66.5670000  31.0020000  30.6080000  65.3070000  29.4680000
  31.5870000  65.8580000  28.7060000  33.4630000  66.7320000  28.7410000
  29.8080000  65.0000000  29.0560000  31.4660000  65.9230000  27.7660000
  30.4530000  67.7730000  47.1490000  30.2970000  67.8930000  45.7570000
  29.4720000  67.2160000  47.9790000  31.6840000  68.2610000  47.7530000
  29.4950000  67.5750000  45.3560000  31.2730000  68.4580000  44.9470000
  28.6590000  66.8990000  47.6070000  29.6510000  67.1140000  49.3670000
  32.6760000  68.8330000  46.9210000  31.8630000  68.1600000  49.1400000
  32.4970000  68.9340000  45.5460000  31.1090000  68.5830000  43.5250000
  28.6600000  66.5430000  50.1990000  30.8820000  67.6020000  49.9710000
  33.4810000  69.1540000  47.3100000  32.6770000  68.4770000  49.5130000
  33.4930000  69.5200000  44.6830000  30.3090000  68.2770000  43.1130000
  32.0880000  69.1350000  42.7630000  28.8380000  66.4420000  51.5740000
  27.8540000  66.2220000  49.8100000  31.0390000  67.4830000  51.3630000
  33.2950000  69.6170000  43.3480000  34.3030000  69.8440000  45.0580000
  31.9670000  69.1990000  41.8220000  27.8420000  65.8560000  52.4370000
  30.0630000  66.9170000  52.1730000  31.8400000  67.8000000  51.7630000
  33.9640000  70.0090000  42.7980000  28.0400000  65.7590000  53.7720000
  27.0320000  65.5320000  52.0610000  30.2270000  66.7920000  53.5950000
  29.2480000  66.2410000  54.3570000  27.3720000  65.3670000  54.3220000
  31.0260000  67.0990000  54.0070000  29.3690000  66.1760000  55.2970000
  28.9490000  57.9430000   4.9780000  28.7930000  58.0620000   3.5870000
  27.9680000  57.3860000   5.8090000  30.1800000  58.4310000   5.5830000
  27.9920000  57.7450000   3.1860000  29.7690000  58.6280000   2.7770000
  27.1550000  57.0680000   5.4360000  28.1480000  57.2840000   7.1960000
  31.1720000  59.0030000   4.7500000  30.3600000  58.3290000   6.9700000
  30.9940000  59.1040000   3.3760000  29.6050000  58.7530000   1.3540000
  27.1560000  56.7120000   8.0280000  29.3790000  57.7720000   7.8010000
  31.9780000  59.3240000   5.1400000  31.1730000  58.6460000   7.3430000
  31.9900000  59.6890000   2.5130000  28.8050000  58.4470000   0.9420000
  30.5840000  59.3040000   0.5920000  27.3340000  56.6110000   9.4030000
  26.3500000  56.3910000   7.6390000  29.5350000  57.6520000   9.1920000
  31.7920000  59.7870000   1.1770000  32.7990000  60.0130000   2.8880000
  30.4630000  59.3690000  -0.3480000  26.3380000  56.0250000  10.2660000
  28.5590000  57.0870000  10.0020000  30.3360000  57.9700000   9.5930000
  32.4600000  60.1780000   0.6280000  26.5360000  55.9280000  11.6020000
  25.5290000  55.7010000   9.8910000  28.7230000  56.9620000  11.4250000
  27.7440000  56.4110000  12.1860000  25.8680000  55.5360000  12.1510000
  29.5230000  57.2680000  11.8360000  27.8650000  56.3460000  13.1270000
  30.9550000  71.0500000  61.2050000  30.7980000  71.1700000  59.8140000
  29.9730000  70.4930000  62.0360000  32.1850000  71.5380000  61.8100000
  29.9970000  70.8520000  59.4130000  31.7740000  71.7350000  59.0040000
  29.1600000  70.1760000  61.6640000  30.1530000  70.3910000  63.4240000
  33.1770000  72.1100000  60.9780000  32.3650000  71.4360000  63.1970000
  32.9990000  72.2110000  59.6030000  31.6100000  71.8600000  57.5820000
  29.1610000  69.8190000  64.2560000  31.3840000  70.8790000  64.0280000
  33.9830000  72.4310000  61.3670000  33.1780000  71.7540000  63.5700000
  33.9950000  72.7970000  58.7400000  30.8100000  71.5540000  57.1700000
  32.5890000  72.4110000  56.8200000  29.3400000  69.7180000  65.6300000
  28.3560000  69.4980000  63.8660000  31.5400000  70.7600000  65.4200000
  33.7970000  72.8940000  57.4040000  34.8040000  73.1210000  59.1150000
  32.4680000  72.4760000  55.8790000  28.3430000  69.1330000  66.4940000
  30.5640000  70.1940000  66.2290000  32.3410000  71.0770000  65.8200000
  34.4650000  73.2860000  56.8550000  28.5410000  69.0350000  67.8290000
  27.5340000  68.8090000  66.1180000  30.7280000  70.0690000  67.6520000
  29.7490000  69.5180000  68.4140000  27.8730000  68.6440000  68.3790000
  31.5280000  70.3750000  68.0640000  29.8700000  69.4530000  69.3540000
  31.4560000  74.3270000  75.2620000  31.2990000  74.4470000  73.8710000
  30.4750000  73.7700000  76.0930000  32.6870000  74.8150000  75.8670000
  30.4980000  74.1290000  73.4700000  32.2750000  75.0120000  73.0610000
  29.6610000  73.4530000  75.7200000  30.6540000  73.6680000  77.4800000
  33.6790000  75.3870000  75.0350000  32.8660000  74.7130000  77.2540000
  33.5000000  75.4880000  73.6600000  32.1110000  75.1370000  71.6380000
  29.6620000  73.0960000  78.3130000  31.8850000  74.1560000  78.0850000
  34.4840000  75.7080000  75.4240000  33.6790000  75.0300000  77.6270000
  34.4960000  76.0740000  72.7970000  31.3120000  74.8310000  71.2270000
  33.0900000  75.6880000  70.8770000  29.8410000  72.9950000  79.6870000
  28.8570000  72.7750000  77.9230000  32.0410000  74.0360000  79.4760000
  34.2980000  76.1710000  71.4610000  35.3060000  76.3980000  73.1720000
  32.9690000  75.7530000  69.9360000  28.8450000  72.4090000  80.5500000
  31.0650000  73.4710000  80.2860000  32.8430000  74.3540000  79.8770000
  34.9660000  76.5630000  70.9120000  29.0430000  72.3120000  81.8860000
  28.0350000  72.0850000  80.1750000  31.2290000  73.3460000  81.7090000
  30.2500000  72.7950000  82.4710000  28.3740000  71.9200000  82.4350000
  32.0290000  73.6520000  82.1210000  30.3710000  72.7300000  83.4110000
  30.1150000  65.4500000   7.8010000  30.2710000  65.3310000   9.1920000
  31.0960000  66.0080000   6.9700000  28.8840000  64.9620000   7.1960000
  31.0720000  65.6480000   9.5930000  29.2950000  64.7660000  10.0020000
  31.9090000  66.3250000   7.3430000  30.9160000  66.1100000   5.5830000
  27.8920000  64.3910000   8.0280000  28.7040000  65.0640000   5.8090000
  28.0710000  64.2900000   9.4030000  29.4590000  64.6400000  11.4250000
  31.9080000  66.6810000   4.7500000  29.6860000  65.6220000   4.9780000
  27.0870000  64.0700000   7.6390000  27.8910000  64.7470000   5.4360000
  27.0750000  63.7040000  10.2660000  30.2590000  64.9470000  11.8360000
  28.4800000  64.0890000  12.1860000  31.7300000  66.7820000   3.3760000
  32.7140000  67.0020000   5.1400000  29.5290000  65.7410000   3.5870000
  27.2730000  63.6070000  11.6020000  26.2650000  63.3800000   9.8910000
  28.6010000  64.0240000  13.1270000  32.7260000  67.3680000   2.5130000
  30.5050000  66.3060000   2.7770000  28.7280000  65.4230000   3.1860000
  26.6040000  63.2150000  12.1510000  32.5280000  67.4650000   1.1770000
  33.5350000  67.6920000   2.8880000  30.3410000  66.4320000   1.3540000
  31.3200000  66.9830000   0.5920000  33.1960000  67.8570000   0.6280000
  29.5410000  66.1250000   0.9420000  31.1990000  67.0480000  -0.3480000
  30.6160000  68.7270000  21.8580000  30.7720000  68.6080000  23.2490000
  31.5970000  69.2840000  21.0270000  29.3850000  68.2390000  21.2530000
  31.5740000  68.9250000  23.6500000  29.7960000  68.0420000  24.0590000
  32.4110000  69.6020000  21.3990000  31.4180000  69.3860000  19.6390000
  28.3930000  67.6680000  22.0850000  29.2060000  68.3410000  19.8660000
  28.5720000  67.5670000  23.4600000  29.9600000  67.9170000  25.4810000
  32.4100000  69.9580000  18.8070000  30.1870000  68.8980000  19.0350000
  27.5880000  67.3460000  21.6960000  28.3920000  68.0240000  19.4930000
  27.5760000  66.9810000  24.3230000  30.7600000  68.2240000  25.8930000
  28.9810000  67.3660000  26.2430000  32.2310000  70.0590000  17.4320000
  33.2150000  70.2790000  19.1970000  30.0300000  69.0180000  17.6430000
  27.7740000  66.8830000  25.6590000  26.7660000  66.6570000  23.9480000
  29.1020000  67.3010000  27.1840000  33.2270000  70.6450000  16.5690000
  31.0060000  69.5830000  16.8340000  29.2290000  68.7000000  17.2430000
  27.1050000  66.4920000  26.2080000  33.0290000  70.7420000  15.2340000
  34.0370000  70.9690000  16.9450000  30.8430000  69.7080000  15.4110000
  31.8220000  70.2590000  14.6490000  33.6970000  71.1340000  14.6840000
  30.0430000  69.4020000  14.9990000  31.7000000  70.3240000  13.7090000
  31.1170000  72.0040000  35.9140000  31.2740000  71.8850000  37.3060000
  32.0980000  72.5610000  35.0840000  29.8860000  71.5160000  35.3100000
  32.0750000  72.2020000  37.7070000  30.2980000  71.3190000  38.1160000
  32.9120000  72.8780000  35.4560000  31.9190000  72.6630000  33.6960000
  28.8940000  70.9440000  36.1420000  29.7070000  71.6180000  33.9230000
  29.0730000  70.8430000  37.5170000  30.4610000  71.1940000  39.5380000
  32.9110000  73.2350000  32.8640000  30.6880000  72.1750000  33.0920000
  28.0890000  70.6230000  35.7530000  28.8930000  71.3010000  33.5500000
  28.0770000  70.2570000  38.3800000  31.2610000  71.5000000  39.9500000
  29.4830000  70.6430000  40.3000000  32.7320000  73.3360000  31.4890000
  33.7160000  73.5560000  33.2530000  30.5320000  72.2950000  31.7000000
  28.2750000  70.1600000  39.7150000  27.2670000  69.9330000  38.0050000
  29.6040000  70.5780000  41.2410000  33.7280000  73.9220000  30.6260000
  31.5080000  72.8600000  30.8900000  29.7300000  71.9770000  31.3000000
  27.6070000  69.7690000  40.2650000  33.5300000  74.0190000  29.2910000
  34.5380000  74.2460000  31.0020000  31.3440000  72.9850000  29.4680000
  32.3230000  73.5360000  28.7060000  34.1990000  74.4110000  28.7410000
  30.5440000  72.6790000  29.0560000  32.2020000  73.6010000  27.7660000
  31.1890000  75.4520000  47.1490000  31.0330000  75.5720000  45.7570000
  30.2080000  74.8950000  47.9790000  32.4200000  75.9400000  47.7530000
  30.2320000  75.2540000  45.3560000  32.0090000  76.1370000  44.9470000
  29.3950000  74.5780000  47.6070000  30.3880000  74.7930000  49.3670000
  33.4120000  76.5120000  46.9210000  32.6000000  75.8380000  49.1400000
  33.2330000  76.6130000  45.5460000  31.8450000  76.2620000  43.5250000
  29.3960000  74.2210000  50.1990000  31.6180000  75.2810000  49.9710000
  34.2170000  76.8330000  47.3100000  33.4130000  76.1550000  49.5130000
  34.2290000  77.1990000  44.6830000  31.0450000  75.9560000  43.1130000
  32.8240000  76.8130000  42.7630000  29.5740000  74.1200000  51.5740000
  28.5900000  73.9000000  49.8100000  31.7750000  75.1610000  51.3630000
  34.0310000  77.2960000  43.3480000  35.0390000  77.5230000  45.0580000
  32.7030000  76.8780000  41.8220000  28.5780000  73.5340000  52.4370000
  30.7990000  74.5960000  52.1730000  32.5760000  75.4790000  51.7630000
  34.7000000  77.6870000  42.7980000  28.7760000  73.4370000  53.7720000
  27.7690000  73.2100000  52.0610000  30.9630000  74.4710000  53.5950000
  29.9840000  73.9200000  54.3570000  28.1080000  73.0450000  54.3220000
  31.7630000  74.7770000  54.0070000  30.1050000  73.8550000  55.2970000
  32.1920000  82.0060000  75.2620000  32.0350000  82.1250000  73.8710000
  31.2110000  81.4480000  76.0930000  33.4230000  82.4940000  75.8670000
  31.2340000  81.8080000  73.4700000  33.0110000  82.6900000  73.0610000
  30.3970000  81.1310000  75.7200000  31.3900000  81.3460000  77.4800000
  34.4150000  83.0650000  75.0350000  33.6020000  82.3920000  77.2540000
  34.2360000  83.1660000  73.6600000  32.8480000  82.8160000  71.6380000
  30.3980000  80.7750000  78.3130000  32.6210000  81.8340000  78.0850000
  35.2200000  83.3860000  75.4240000  34.4160000  82.7090000  77.6270000
  35.2320000  83.7520000  72.7970000  32.0480000  82.5090000  71.2270000
  33.8270000  83.3670000  70.8770000  30.5770000  80.6740000  79.6870000
  29.5930000  80.4540000  77.9230000  32.7770000  81.7150000  79.4760000
  35.0340000  83.8490000  71.4610000  36.0420000  84.0760000  73.1720000
  33.7050000  83.4320000  69.9360000  29.5810000  80.0880000  80.5500000
  31.8010000  81.1500000  80.2860000  33.5790000  82.0330000  79.8770000
  35.7020000  84.2410000  70.9120000  29.7790000  79.9910000  81.8860000
  28.7710000  79.7640000  80.1750000  31.9650000  81.0240000  81.7090000
  30.9860000  80.4730000  82.4710000  29.1100000  79.5990000  82.4350000
  32.7650000  81.3310000  82.1210000  31.1070000  80.4090000  83.4110000
  31.6910000  78.7290000  61.2050000  31.5340000  78.8480000  59.8140000
  30.7090000  78.1720000  62.0360000  32.9210000  79.2170000  61.8100000
  30.7330000  78.5310000  59.4130000  32.5100000  79.4140000  59.0040000
  29.8960000  77.8540000  61.6640000  30.8890000  78.0700000  63.4240000
  33.9130000  79.7880000  60.9780000  33.1010000  79.1150000  63.1970000
  33.7350000  79.8900000  59.6030000  32.3460000  79.5390000  57.5820000
  29.8970000  77.4980000  64.2560000  32.1200000  78.5580000  64.0280000
  34.7190000  80.1100000  61.3670000  33.9140000  79.4320000  63.5700000
  34.7310000  80.4750000  58.7400000  31.5470000  79.2320000  57.1700000
  33.3250000  80.0900000  56.8200000  30.0760000  77.3970000  65.6300000
  29.0920000  77.1770000  63.8660000  32.2760000  78.4380000  65.4200000
  34.5330000  80.5730000  57.4040000  35.5410000  80.7990000  59.1150000
  33.2040000  80.1550000  55.8790000  29.0800000  76.8110000  66.4940000
  31.3000000  77.8730000  66.2290000  33.0770000  78.7560000  65.8200000
  35.2010000  80.9640000  56.8550000  29.2780000  76.7140000  67.8290000
  28.2700000  76.4870000  66.1180000  31.4640000  77.7480000  67.6520000
  30.4850000  77.1970000  68.4140000  28.6090000  76.3220000  68.3790000
  32.2640000  78.0540000  68.0640000  30.6060000  77.1320000  69.3540000
  30.4220000  73.3000000   4.9780000  30.2650000  73.4200000   3.5870000
  29.4410000  72.7430000   5.8090000  31.6530000  73.7880000   5.5830000
  29.4640000  73.1020000   3.1860000  31.2410000  73.9850000   2.7770000
  28.6270000  72.4260000   5.4360000  29.6200000  72.6410000   7.1960000
  32.6440000  74.3600000   4.7500000  31.8320000  73.6860000   6.9700000
  32.4660000  74.4610000   3.3760000  31.0770000  74.1100000   1.3540000
  28.6280000  72.0690000   8.0280000  30.8510000  73.1290000   7.8010000
  33.4500000  74.6810000   5.1400000  32.6450000  74.0030000   7.3430000
  33.4620000  75.0470000   2.5130000  30.2780000  73.8040000   0.9420000
  32.0560000  74.6610000   0.5920000  28.8070000  71.9680000   9.4030000
  27.8230000  71.7480000   7.6390000  31.0070000  73.0090000   9.1920000
  33.2640000  75.1440000   1.1770000  34.2720000  75.3710000   2.8880000
  31.9350000  74.7260000  -0.3480000  27.8110000  71.3820000  10.2660000
  30.0310000  72.4440000  10.0020000  31.8090000  73.3270000   9.5930000
  33.9320000  75.5360000   0.6280000  28.0090000  71.2850000  11.6020000
  27.0010000  71.0580000   9.8910000  30.1950000  72.3190000  11.4250000
  29.2160000  71.7680000  12.1860000  27.3400000  70.8930000  12.1510000
  30.9950000  72.6250000  11.8360000  29.3370000  71.7030000  13.1270000
  31.4240000  79.8540000  33.0920000  31.2680000  79.9730000  31.7000000
  30.4430000  79.2970000  33.9230000  32.6550000  80.3420000  33.6960000
  30.4660000  79.6560000  31.3000000  32.2440000  80.5390000  30.8900000
  29.6300000  78.9790000  33.5500000  30.6220000  79.1950000  35.3100000
  33.6470000  80.9130000  32.8640000  32.8340000  80.2400000  35.0840000
  33.4680000  81.0140000  31.4890000  32.0800000  80.6640000  29.4680000
  29.6310000  78.6230000  36.1420000  31.8530000  79.6830000  35.9140000
  34.4520000  81.2350000  33.2530000  33.6480000  80.5570000  35.4560000
  34.4640000  81.6000000  30.6260000  31.2800000  80.3570000  29.0560000
  33.0590000  81.2150000  28.7060000  29.8090000  78.5220000  37.5170000
  28.8250000  78.3020000  35.7530000  32.0100000  79.5630000  37.3060000
  34.2660000  81.6980000  29.2910000  35.2740000  81.9240000  31.0020000
  32.9380000  81.2800000  27.7660000  28.8130000  77.9360000  38.3800000
  31.0340000  78.9980000  38.1160000  32.8110000  79.8810000  37.7070000
  34.9350000  82.0890000  28.7410000  29.0110000  77.8390000  39.7150000
  28.0030000  77.6120000  38.0050000  31.1980000  78.8730000  39.5380000
  30.2190000  78.3210000  40.3000000  28.3430000  77.4470000  40.2650000
  31.9970000  79.1790000  39.9500000  30.3400000  78.2570000  41.2410000
  33.3570000  89.5130000  78.0850000  33.5130000  89.3940000  79.4760000
  34.3380000  90.0700000  77.2540000  32.1260000  89.0250000  77.4800000
  34.3150000  89.7110000  79.8770000  32.5380000  88.8280000  80.2860000
  35.1520000  90.3880000  77.6270000  34.1590000  90.1720000  75.8670000
  31.1340000  88.4540000  78.3130000  31.9470000  89.1270000  76.0930000
  31.3130000  88.3520000  79.6870000  32.7010000  88.7030000  81.7090000
  35.1510000  90.7440000  75.0350000  32.9280000  89.6840000  75.2620000
  30.3290000  88.1320000  77.9230000  31.1330000  88.8100000  75.7200000
  30.3170000  87.7670000  80.5500000  33.5010000  89.0090000  82.1210000
  31.7220000  88.1520000  82.4710000  34.9720000  90.8450000  73.6600000
  35.9560000  91.0650000  75.4240000  32.7720000  89.8040000  73.8710000
  30.5150000  87.6690000  81.8860000  29.5070000  87.4430000  80.1750000
  31.8440000  88.0870000  83.4110000  35.9680000  91.4310000  72.7970000
  33.7480000  90.3690000  73.0610000  31.9700000  89.4860000  73.4700000
  29.8470000  87.2780000  82.4350000  35.7700000  91.5280000  71.4610000
  36.7780000  91.7550000  73.1720000  33.5840000  90.4940000  71.6380000
  34.5630000  91.0450000  70.8770000  36.4390000  91.9200000  70.9120000
  32.7840000  90.1880000  71.2270000  34.4420000  91.1100000  69.9360000
  31.1580000  80.9790000   4.9780000  31.0010000  81.0980000   3.5870000
  30.1770000  80.4210000   5.8090000  32.3890000  81.4670000   5.5830000
  30.2000000  80.7810000   3.1860000  31.9770000  81.6630000   2.7770000
  29.3630000  80.1040000   5.4360000  30.3560000  80.3200000   7.1960000
  33.3810000  82.0380000   4.7500000  32.5680000  81.3650000   6.9700000
  33.2020000  82.1390000   3.3760000  31.8140000  81.7890000   1.3540000
  29.3640000  79.7480000   8.0280000  31.5870000  80.8070000   7.8010000
  34.1860000  82.3590000   5.1400000  33.3820000  81.6820000   7.3430000
  34.1980000  82.7250000   2.5130000  31.0140000  81.4820000   0.9420000
  32.7920000  82.3400000   0.5920000  29.5430000  79.6470000   9.4030000
  28.5590000  79.4270000   7.6390000  31.7430000  80.6880000   9.1920000
  34.0000000  82.8220000   1.1770000  35.0080000  83.0490000   2.8880000
  32.6710000  82.4050000  -0.3480000  28.5470000  79.0610000  10.2660000
  30.7670000  80.1230000  10.0020000  32.5450000  81.0060000   9.5930000
  34.6680000  83.2140000   0.6280000  28.7450000  78.9640000  11.6020000
  27.7370000  78.7370000   9.8910000  30.9310000  79.9980000  11.4250000
  29.9520000  79.4460000  12.1860000  28.0760000  78.5720000  12.1510000
  31.7310000  80.3040000  11.8360000  30.0730000  79.3820000  13.1270000
  32.0880000  84.0840000  21.8580000  32.2450000  83.9650000  23.2490000
  33.0690000  84.6420000  21.0270000  30.8570000  83.5960000  21.2530000
  33.0460000  84.2830000  23.6500000  31.2690000  83.4000000  24.0590000
  33.8830000  84.9590000  21.3990000  32.8900000  84.7440000  19.6390000
  29.8650000  83.0250000  22.0850000  30.6780000  83.6980000  19.8660000
  30.0440000  82.9240000  23.4600000  31.4320000  83.2740000  25.4810000
  33.8820000  85.3150000  18.8070000  31.6590000  84.2560000  19.0350000
  29.0600000  82.7040000  21.6960000  29.8640000  83.3810000  19.4930000
  29.0480000  82.3380000  24.3230000  32.2320000  83.5810000  25.8930000
  30.4530000  82.7230000  26.2430000  33.7030000  85.4160000  17.4320000
  34.6870000  85.6360000  19.1970000  31.5030000  84.3750000  17.6430000
  29.2460000  82.2410000  25.6590000  28.2380000  82.0140000  23.9480000
  30.5750000  82.6580000  27.1840000  34.6990000  86.0020000  16.5690000
  32.4790000  84.9400000  16.8340000  30.7010000  84.0570000  17.2430000
  28.5780000  81.8490000  26.2080000  34.5010000  86.0990000  15.2340000
  35.5090000  86.3260000  16.9450000  32.3150000  85.0660000  15.4110000
  33.2940000  85.6170000  14.6490000  35.1700000  86.4910000  14.6840000
  31.5150000  84.7590000  14.9990000  33.1730000  85.6820000  13.7090000
  32.1600000  87.5320000  33.0920000  32.0040000  87.6520000  31.7000000
  31.1790000  86.9750000  33.9230000  33.3910000  88.0200000  33.6960000
  31.2030000  87.3340000  31.3000000  32.9800000  88.2170000  30.8900000
  30.3660000  86.6580000  33.5500000  31.3590000  86.8730000  35.3100000
  34.3830000  88.5920000  32.8640000  33.5710000  87.9180000  35.0840000
  34.2040000  88.6930000  31.4890000  32.8160000  88.3420000  29.4680000
  30.3670000  86.3020000  36.1420000  32.5890000  87.3610000  35.9140000
  35.1880000  88.9130000  33.2530000  34.3840000  88.2360000  35.4560000
  35.2000000  89.2790000  30.6260000  32.0160000  88.0360000  29.0560000
  33.7950000  88.8940000  28.7060000  30.5450000  86.2010000  37.5170000
  29.5610000  85.9800000  35.7530000  32.7460000  87.2420000  37.3060000
  35.0020000  89.3760000  29.2910000  36.0100000  89.6030000  31.0020000
  33.6740000  88.9580000  27.7660000  29.5490000  85.6150000  38.3800000
  31.7700000  86.6760000  38.1160000  33.5470000  87.5590000  37.7070000
  35.6710000  89.7680000  28.7410000  29.7470000  85.5170000  39.7150000
  28.7400000  85.2910000  38.0050000  31.9340000  86.5510000  39.5380000
  30.9550000  86.0000000  40.3000000  29.0790000  85.1260000  40.2650000
  32.7340000  86.8580000  39.9500000  31.0760000  85.9350000  41.2410000
  33.6640000  97.3630000  75.2620000  33.5080000  97.4820000  73.8710000
  32.6830000  96.8060000  76.0930000  34.8950000  97.8510000  75.8670000
  32.7060000  97.1650000  73.4700000  34.4840000  98.0480000  73.0610000
  31.8690000  96.4880000  75.7200000  32.8620000  96.7040000  77.4800000
  35.8870000  98.4220000  75.0350000  35.0740000  97.7490000  77.2540000
  35.7080000  98.5240000  73.6600000  34.3200000  98.1730000  71.6380000
  31.8700000  96.1320000  78.3130000  34.0930000  97.1920000  78.0850000
  36.6920000  98.7440000  75.4240000  35.8880000  98.0660000  77.6270000
  36.7040000  99.1090000  72.7970000  33.5200000  97.8670000  71.2270000
  35.2990000  98.7240000  70.8770000  32.0490000  96.0310000  79.6870000
  31.0650000  95.8110000  77.9230000  34.2500000  97.0720000  79.4760000
  36.5060000  99.2070000  71.4610000  37.5140000  99.4330000  73.1720000
  35.1780000  98.7890000  69.9360000  31.0530000  95.4450000  80.5500000
  33.2740000  96.5070000  80.2860000  35.0510000  97.3900000  79.8770000
  37.1750000  99.5980000  70.9120000  31.2510000  95.3480000  81.8860000
  30.2430000  95.1210000  80.1750000  33.4380000  96.3820000  81.7090000
  32.4590000  95.8310000  82.4710000  30.5830000  94.9560000  82.4350000
  34.2370000  96.6880000  82.1210000  32.5800000  95.7660000  83.4110000
  34.1650000 100.6400000  89.3190000  34.0090000 100.7590000  87.9270000
  33.1840000 100.0820000  90.1500000  35.3960000 101.1280000  89.9230000
  33.2080000 100.4420000  87.5270000  34.9850000 101.3240000  87.1180000
  32.3710000  99.7650000  89.7770000  33.3640000  99.9810000  91.5370000
  36.3880000 101.6990000  89.0910000  35.5760000 101.0260000  91.3110000
  36.2090000 101.8000000  87.7170000  34.8210000 101.4500000  85.6950000
  32.3720000  99.4090000  92.3690000  34.5940000 100.4680000  92.1420000
  37.1930000 102.0200000  89.4810000  36.3890000 101.3430000  91.6830000
  37.2050000 102.3860000  86.8530000  34.0210000 101.1430000  85.2830000
  35.8000000 102.0010000  84.9330000  32.5500000  99.3080000  93.7440000
  31.5660000  99.0880000  91.9800000  34.7510000 100.3490000  93.5330000
  37.0080000 102.4830000  85.5180000  38.0150000 102.7100000  87.2290000
  35.6790000 102.0660000  83.9930000  31.5540000  98.7220000  94.6070000
  33.7750000  99.7840000  94.3430000  35.5520000 100.6670000  93.9340000
  37.6760000 102.8750000  84.9680000  31.7520000  98.6250000  95.9430000
  30.7450000  98.3980000  94.2320000  33.9390000  99.6590000  95.7650000
  32.9600000  99.1070000  96.5270000  31.0840000  98.2330000  96.4920000
  34.7390000  99.9650000  96.1770000  33.0810000  99.0430000  97.4680000
  28.9740000  18.2000000  21.6710000  29.1440000  17.5230000  22.8950000
  29.9490000  18.1950000  20.6670000  27.7300000  18.9290000  21.4390000
  29.9450000  17.0360000  23.0470000  28.1720000  17.5500000  23.8850000
  30.7630000  17.7220000  20.7980000  29.7790000  18.8750000  19.4540000
  26.7450000  18.9340000  22.4580000  27.5590000  19.6090000  20.2260000
  26.9410000  18.2750000  23.6580000  28.3430000  16.8900000  25.1380000
  30.7630000  18.8700000  18.4350000  28.5350000  19.6040000  19.2220000
  25.9310000  19.4020000  22.3130000  26.7450000  20.0820000  20.0950000
  25.9570000  18.2910000  24.6960000  29.1460000  16.4090000  25.3040000
  27.3860000  16.9340000  26.0970000  30.5680000  19.5290000  17.2340000
  31.5780000  18.4020000  18.5800000  28.3640000  20.2810000  17.9980000
  26.1680000  17.6480000  25.8680000  25.1420000  18.7600000  24.5590000
  27.5240000  16.4880000  26.9250000  31.5520000  19.5120000  16.1970000
  29.3370000  20.2530000  17.0080000  27.5630000  20.7680000  17.8460000
  25.5010000  17.6710000  26.5440000  31.3410000  20.1560000  15.0250000
  32.3670000  19.0430000  16.3330000  29.1650000  20.9130000  15.7540000
  30.1230000  20.8700000  14.7950000  32.0070000  20.1330000  14.3480000
  28.3630000  21.3940000  15.5880000  29.9840000  21.3150000  13.9670000
  30.0390000  29.4340000  61.3920000  29.8680000  30.1110000  60.1680000
  29.0630000  29.4400000  62.3960000  31.2830000  28.7050000  61.6240000
  29.0670000  30.5990000  60.0160000  30.8410000  30.0840000  59.1780000
  28.2490000  29.9120000  62.2650000  29.2330000  28.7590000  63.6090000
  32.2670000  28.7000000  60.6050000  31.4530000  28.0250000  62.8370000
  32.0710000  29.3600000  59.4050000  30.6690000  30.7440000  57.9250000
  28.2490000  28.7640000  64.6280000  30.4780000  28.0300000  63.8410000
  33.0810000  28.2330000  60.7500000  32.2670000  27.5530000  62.9680000
  33.0560000  29.3430000  58.3670000  29.8660000  31.2250000  57.7590000
  31.6270000  30.7010000  56.9660000  28.4450000  28.1050000  65.8290000
  27.4350000  29.2320000  64.4830000  30.6480000  27.3540000  65.0650000
  32.8440000  29.9860000  57.1950000  33.8700000  28.8740000  58.5040000
  31.4880000  31.1460000  56.1380000  27.4600000  28.1220000  66.8660000
  29.6750000  27.3810000  66.0550000  31.4490000  26.8660000  65.2170000
  33.5110000  29.9630000  56.5190000  27.6720000  27.4780000  68.0380000
  26.6460000  28.5910000  66.7300000  29.8470000  26.7210000  67.3090000
  28.8900000  26.7640000  68.2680000  27.0050000  27.5020000  68.7150000
  30.6500000  26.2400000  67.4750000  29.0280000  26.3190000  69.0960000
  30.7430000  42.6400000  19.2220000  30.5730000  43.3160000  17.9980000
  29.7670000  42.6450000  20.2260000  31.9870000  41.9110000  19.4540000
  29.7720000  43.8040000  17.8460000  31.5450000  43.2890000  17.0080000
  28.9540000  43.1170000  20.0950000  29.9380000  41.9650000  21.4390000
  32.9720000  41.9060000  18.4350000  32.1580000  41.2300000  20.6670000
  32.7760000  42.5650000  17.2340000  31.3730000  43.9490000  15.7540000
  28.9540000  41.9700000  22.4580000  31.1820000  41.2360000  21.6710000
  33.7860000  41.4380000  18.5800000  32.9710000  40.7580000  20.7980000
  33.7600000  42.5480000  16.1970000  30.5710000  44.4300000  15.5880000
  32.3310000  43.9060000  14.7950000  29.1490000  41.3100000  23.6580000
  28.1390000  42.4370000  22.3130000  31.3530000  40.5590000  22.8950000
  33.5490000  43.1920000  15.0250000  34.5750000  42.0790000  16.3330000
  32.1930000  44.3510000  13.9670000  28.1650000  41.3270000  24.6960000
  30.3800000  40.5860000  23.8850000  32.1540000  40.0710000  23.0470000
  34.2160000  43.1680000  14.3480000  28.3760000  40.6840000  25.8680000
  27.3500000  41.7960000  24.5590000  30.5520000  39.9260000  25.1380000
  29.5940000  39.9690000  26.0970000  27.7100000  40.7070000  26.5440000
  31.3540000  39.4450000  25.3040000  29.7320000  39.5240000  26.9250000
  32.6540000  56.5930000  21.6710000  32.8250000  55.9160000  22.8950000
  33.6300000  56.5880000  20.6670000  31.4100000  57.3220000  21.4390000
  33.6260000  55.4290000  23.0470000  31.8520000  55.9430000  23.8850000
  34.4440000  56.1150000  20.7980000  33.4590000  57.2680000  19.4540000
  30.4260000  57.3270000  22.4580000  31.2400000  58.0020000  20.2260000
  30.6210000  56.6680000  23.6580000  32.0240000  55.2830000  25.1380000
  34.4440000  57.2630000  18.4350000  32.2150000  57.9970000  19.2220000
  29.6120000  57.7950000  22.3130000  30.4260000  58.4750000  20.0950000
  29.6370000  56.6840000  24.6960000  32.8270000  54.8020000  25.3040000
  31.0660000  55.3260000  26.0970000  34.2480000  57.9220000  17.2340000
  35.2580000  56.7950000  18.5800000  32.0450000  58.6740000  17.9980000
  29.8480000  56.0410000  25.8680000  28.8230000  57.1530000  24.5590000
  31.2050000  54.8810000  26.9250000  35.2320000  57.9050000  16.1970000
  33.0180000  58.6460000  17.0080000  31.2440000  59.1610000  17.8460000
  29.1820000  56.0640000  26.5440000  35.0210000  58.5490000  15.0250000
  36.0470000  57.4360000  16.3330000  32.8460000  59.3060000  15.7540000
  33.8030000  59.2630000  14.7950000  35.6880000  58.5260000  14.3480000
  32.0430000  59.7870000  15.5880000  33.6650000  59.7080000  13.9670000
  34.1580000  66.4230000  63.8410000  34.3290000  65.7470000  65.0650000
  35.1340000  66.4180000  62.8370000  32.9140000  67.1520000  63.6090000
  35.1300000  65.2590000  65.2170000  33.3560000  65.7740000  66.0550000
  35.9480000  65.9460000  62.9680000  34.9630000  67.0980000  61.6240000
  31.9300000  67.1570000  64.6280000  32.7430000  67.8330000  62.3960000
  32.1250000  66.4980000  65.8290000  33.5280000  65.1140000  67.3090000
  35.9480000  67.0930000  60.6050000  33.7190000  67.8270000  61.3920000
  31.1150000  67.6250000  64.4830000  31.9300000  68.3050000  62.2650000
  31.1410000  66.5150000  66.8660000  34.3300000  64.6330000  67.4750000
  32.5700000  65.1570000  68.2680000  35.7520000  67.7530000  59.4050000
  36.7620000  66.6260000  60.7500000  33.5490000  68.5040000  60.1680000
  31.3520000  65.8710000  68.0380000  30.3260000  66.9840000  66.7300000
  32.7090000  64.7120000  69.0960000  36.7360000  67.7360000  58.3670000
  34.5210000  68.4770000  59.1780000  32.7480000  68.9920000  60.0160000
  30.6860000  65.8950000  68.7150000  36.5250000  68.3790000  57.1950000
  37.5510000  67.2670000  58.5040000  34.3500000  69.1370000  57.9250000
  35.3070000  69.0940000  56.9660000  37.1920000  68.3560000  56.5190000
  33.5470000  69.6180000  57.7590000  35.1690000  69.5390000  56.1380000
  35.8970000  80.6560000  91.9550000  36.0670000  79.9790000  93.1790000
  36.8730000  80.6500000  90.9510000  34.6530000  81.3850000  91.7230000
  36.8680000  79.4910000  93.3310000  35.0950000  80.0060000  94.1690000
  37.6860000  80.1780000  91.0820000  36.7020000  81.3310000  89.7380000
  33.6680000  81.3900000  92.7420000  34.4820000  82.0650000  90.5100000
  33.8640000  80.7300000  93.9420000  35.2660000  79.3460000  95.4230000
  37.6860000  81.3260000  88.7190000  35.4580000  82.0600000  89.5060000
  32.8540000  81.8570000  92.5970000  33.6680000  82.5370000  90.3790000
  32.8800000  80.7470000  94.9800000  36.0690000  78.8650000  95.5880000
  34.3090000  79.3890000  96.3810000  37.4910000  81.9850000  87.5180000
  38.5010000  80.8580000  88.8640000  35.2870000  82.7360000  88.2820000
  33.0910000  80.1040000  96.1520000  32.0650000  81.2160000  94.8430000
  34.4470000  78.9440000  97.2090000  38.4750000  81.9680000  86.4810000
  36.2600000  82.7090000  87.2920000  34.4860000  83.2240000  88.1300000
  32.4240000  80.1270000  96.8280000  38.2640000  82.6120000  85.3090000
  39.2900000  81.4990000  86.6170000  36.0880000  83.3690000  86.0380000
  37.0460000  83.3260000  85.0800000  38.9300000  82.5880000  84.6320000
  35.2860000  83.8500000  85.8720000  36.9070000  83.7710000  84.2520000
  33.3900000  64.2710000  21.6710000  33.5610000  63.5950000  22.8950000
  34.3660000  64.2660000  20.6670000  32.1460000  65.0010000  21.4390000
  34.3620000  63.1070000  23.0470000  32.5880000  63.6220000  23.8850000
  35.1800000  63.7940000  20.7980000  34.1960000  64.9460000  19.4540000
  31.1620000  65.0050000  22.4580000  31.9760000  65.6810000  20.2260000
  31.3580000  64.3460000  23.6580000  32.7600000  62.9620000  25.1380000
  35.1800000  64.9410000  18.4350000  32.9520000  65.6760000  19.2220000
  30.3480000  65.4730000  22.3130000  31.1620000  66.1530000  20.0950000
  30.3730000  64.3630000  24.6960000  33.5630000  62.4810000  25.3040000
  31.8020000  63.0050000  26.0970000  34.9840000  65.6010000  17.2340000
  35.9940000  64.4740000  18.5800000  32.7810000  66.3520000  17.9980000
  30.5850000  63.7200000  25.8680000  29.5590000  64.8320000  24.5590000
  31.9410000  62.5600000  26.9250000  35.9690000  65.5840000  16.1970000
  33.7540000  66.3250000  17.0080000  31.9800000  66.8400000  17.8460000
  29.9180000  63.7430000  26.5440000  35.7570000  66.2270000  15.0250000
  36.7830000  65.1150000  16.3330000  33.5820000  66.9850000  15.7540000
  34.5400000  66.9420000  14.7950000  36.4240000  66.2040000  14.3480000
  32.7790000  67.4660000  15.5880000  34.4010000  67.3870000  13.9670000
  34.9570000  78.7830000  75.4490000  34.7860000  79.4600000  74.2250000
  33.9810000  78.7880000  76.4530000  36.2010000  78.0540000  75.6810000
  33.9850000  79.9470000  74.0730000  35.7590000  79.4320000  73.2350000
  33.1670000  79.2600000  76.3220000  34.1510000  78.1080000  77.6660000
  37.1850000  78.0490000  74.6620000  36.3710000  77.3740000  76.8940000
  36.9890000  78.7080000  73.4620000  35.5870000  80.0920000  71.9810000
  33.1670000  78.1130000  78.6850000  35.3950000  77.3790000  77.8980000
  37.9990000  77.5810000  74.8070000  37.1850000  76.9010000  77.0250000
  37.9740000  78.6910000  72.4240000  34.7840000  80.5730000  71.8150000
  36.5450000  80.0490000  71.0230000  33.3630000  77.4540000  79.8860000
  32.3530000  78.5800000  78.5400000  35.5660000  76.7020000  79.1220000
  37.7620000  79.3350000  71.2520000  38.7880000  78.2220000  72.5610000
  36.4060000  80.4940000  70.1950000  32.3780000  77.4700000  80.9230000
  34.5930000  76.7290000  80.1120000  36.3670000  76.2150000  79.2740000
  38.4290000  79.3120000  70.5760000  32.5900000  76.8270000  82.0950000
  31.5640000  77.9390000  80.7870000  34.7650000  76.0690000  81.3660000
  33.8070000  76.1120000  82.3240000  31.9230000  76.8500000  82.7710000
  35.5680000  75.5880000  81.5320000  33.9460000  75.6670000  83.1520000
  28.2380000  10.5210000  21.6710000  28.4080000   9.8450000  22.8950000
  29.2130000  10.5160000  20.6670000  26.9940000  11.2500000  21.4390000
  29.2090000   9.3570000  23.0470000  27.4350000   9.8720000  23.8850000
  30.0270000  10.0440000  20.7980000  29.0430000  11.1960000  19.4540000
  26.0090000  11.2550000  22.4580000  26.8230000  11.9310000  20.2260000
  26.2050000  10.5960000  23.6580000  27.6070000   9.2120000  25.1380000
  30.0270000  11.1910000  18.4350000  27.7990000  11.9250000  19.2220000
  25.1950000  11.7230000  22.3130000  26.0090000  12.4030000  20.0950000
  25.2210000  10.6130000  24.6960000  28.4100000   8.7310000  25.3040000
  26.6500000   9.2550000  26.0970000  29.8320000  11.8510000  17.2340000
  30.8410000  10.7240000  18.5800000  27.6280000  12.6020000  17.9980000
  25.4320000   9.9690000  25.8680000  24.4060000  11.0820000  24.5590000
  26.7880000   8.8100000  26.9250000  30.8160000  11.8340000  16.1970000
  28.6010000  12.5750000  17.0080000  26.8270000  13.0900000  17.8460000
  24.7650000   9.9930000  26.5440000  30.6050000  12.4770000  15.0250000
  31.6300000  11.3650000  16.3330000  28.4290000  13.2350000  15.7540000
  29.3870000  13.1920000  14.7950000  31.2710000  12.4540000  14.3480000
  27.6260000  13.7160000  15.5880000  29.2480000  13.6370000  13.9670000
  28.3000000  15.2020000  33.2790000  28.1300000  15.8790000  32.0540000
  27.3240000  15.2070000  34.2820000  29.5440000  14.4730000  33.5110000
  27.3280000  16.3660000  31.9030000  29.1020000  15.8520000  31.0650000
  26.5110000  15.6800000  34.1520000  27.4950000  14.5270000  35.4960000
  30.5280000  14.4680000  32.4920000  29.7150000  13.7930000  34.7240000
  30.3330000  15.1270000  31.2910000  28.9300000  16.5120000  29.8110000
  26.5100000  14.5320000  36.5150000  28.7390000  13.7980000  35.7270000
  31.3430000  14.0000000  32.6360000  30.5280000  13.3200000  34.8550000
  31.3170000  15.1110000  30.2540000  28.1280000  16.9930000  29.6450000
  29.8880000  16.4690000  28.8520000  26.7060000  13.8730000  37.7150000
  25.6960000  15.0000000  36.3700000  28.9090000  13.1210000  36.9520000
  31.1060000  15.7540000  29.0810000  32.1320000  14.6420000  30.3900000
  29.7500000  16.9140000  28.0240000  25.7220000  13.8900000  38.7520000
  27.9370000  13.1490000  37.9410000  29.7100000  12.6340000  37.1040000
  31.7720000  15.7310000  28.4050000  25.9330000  13.2460000  39.9250000
  24.9070000  14.3590000  38.6160000  28.1090000  12.4890000  39.1950000
  27.1510000  12.5320000  40.1540000  25.2670000  13.2690000  40.6010000
  28.9110000  12.0080000  39.3610000  27.2890000  12.0870000  40.9820000
  27.2970000   8.6490000   5.1650000  27.1270000   9.3250000   3.9410000
  26.3220000   8.6540000   6.1690000  28.5420000   7.9190000   5.3970000
  26.3260000   9.8130000   3.7890000  28.1000000   9.2980000   2.9510000
  25.5080000   9.1260000   6.0380000  26.4920000   7.9740000   7.3820000
  29.5260000   7.9140000   4.3780000  28.7120000   7.2390000   6.6100000
  29.3300000   8.5740000   3.1770000  27.9280000   9.9580000   1.6970000
  25.5080000   7.9780000   8.4010000  27.7360000   7.2440000   7.6140000
  30.3400000   7.4470000   4.5230000  29.5260000   6.7670000   6.7410000
  30.3140000   8.5570000   2.1400000  27.1250000  10.4390000   1.5310000
  28.8850000   9.9150000   0.7390000  25.7040000   7.3190000   9.6010000
  24.6940000   8.4460000   8.2560000  27.9070000   6.5680000   8.8380000
  30.1030000   9.2000000   0.9680000  31.1290000   8.0880000   2.2760000
  28.7470000  10.3600000  -0.0890000  24.7190000   7.3360000  10.6390000
  26.9340000   6.5950000   9.8280000  28.7080000   6.0800000   8.9900000
  30.7700000   9.1770000   0.2920000  24.9300000   6.6930000  11.8110000
  23.9050000   7.8050000  10.5020000  27.1060000   5.9350000  11.0820000
  26.1480000   5.9780000  12.0400000  24.2640000   6.7160000  12.4870000
  27.9090000   5.4540000  11.2470000  26.2870000   5.5330000  12.8680000
  29.3020000  21.7560000  61.3920000  29.1320000  22.4330000  60.1680000
  28.3270000  21.7610000  62.3960000  30.5470000  21.0270000  61.6240000
  28.3310000  22.9200000  60.0160000  30.1050000  22.4050000  59.1780000
  27.5130000  22.2330000  62.2650000  28.4970000  21.0810000  63.6090000
  31.5310000  21.0220000  60.6050000  30.7170000  20.3470000  62.8370000
  31.3350000  21.6810000  59.4050000  29.9330000  23.0650000  57.9250000
  27.5130000  21.0860000  64.6280000  29.7410000  20.3520000  63.8410000
  32.3450000  20.5540000  60.7500000  31.5310000  19.8740000  62.9680000
  32.3200000  21.6640000  58.3670000  29.1300000  23.5460000  57.7590000
  30.8900000  23.0220000  56.9660000  27.7090000  20.4270000  65.8290000
  26.6990000  21.5530000  64.4830000  29.9120000  19.6750000  65.0650000
  32.1080000  22.3080000  57.1950000  33.1340000  21.1950000  58.5040000
  30.7520000  23.4670000  56.1380000  26.7240000  20.4430000  66.8660000
  28.9390000  19.7020000  66.0550000  30.7130000  19.1880000  65.2170000
  32.7750000  22.2840000  56.5190000  26.9360000  19.8000000  68.0380000
  25.9100000  20.9120000  66.7300000  29.1110000  19.0420000  67.3090000
  28.1530000  19.0850000  68.2680000  26.2690000  19.8230000  68.7150000
  29.9140000  18.5610000  67.4750000  28.2920000  18.6400000  69.0960000
  30.3050000  28.3100000  89.5060000  30.1350000  28.9860000  88.2820000
  29.3290000  28.3150000  90.5100000  31.5490000  27.5800000  89.7380000
  29.3330000  29.4740000  88.1300000  31.1070000  28.9590000  87.2920000
  28.5160000  28.7870000  90.3790000  29.5000000  27.6350000  91.7230000
  32.5330000  27.5750000  88.7190000  31.7200000  26.9000000  90.9510000
  32.3380000  28.2350000  87.5180000  30.9350000  29.6190000  86.0380000
  28.5150000  27.6390000  92.7420000  30.7440000  26.9050000  91.9550000
  33.3480000  27.1080000  88.8640000  32.5330000  26.4280000  91.0820000
  33.3220000  28.2180000  86.4810000  30.1330000  30.1000000  85.8720000
  31.8930000  29.5760000  85.0800000  28.7110000  26.9800000  93.9420000
  27.7010000  28.1070000  92.5970000  30.9140000  26.2290000  93.1790000
  33.1110000  28.8610000  85.3090000  34.1370000  27.7490000  86.6170000
  31.7550000  30.0210000  84.2520000  27.7270000  26.9970000  94.9800000
  29.9420000  26.2560000  94.1690000  31.7160000  25.7410000  93.3310000
  33.7770000  28.8380000  84.6320000  27.9380000  26.3540000  96.1520000
  26.9120000  27.4660000  94.8430000  30.1140000  25.5960000  95.4230000
  29.1560000  25.6390000  96.3810000  27.2720000  26.3770000  96.8280000
  30.9160000  25.1150000  95.5880000  29.2940000  25.1940000  97.2090000
  28.8010000  18.4790000  47.3360000  28.6310000  19.1560000  46.1110000
  27.8250000  18.4840000  48.3390000  30.0450000  17.7500000  47.5670000
  27.8300000  19.6430000  45.9590000  29.6030000  19.1290000  45.1220000
  27.0120000  18.9570000  48.2080000  27.9960000  17.8040000  49.5520000
  31.0300000  17.7450000  46.5480000  30.2160000  17.0700000  48.7810000
  30.8340000  18.4040000  45.3480000  29.4320000  19.7880000  43.8680000
  27.0120000  17.8090000  50.5710000  29.2400000  17.0750000  49.7840000
  31.8440000  17.2770000  46.6930000  31.0300000  16.5970000  48.9110000
  31.8180000  18.3870000  44.3110000  28.6290000  20.2700000  43.7020000
  30.3890000  19.7450000  42.9090000  27.2070000  17.1500000  51.7720000
  26.1970000  18.2770000  50.4270000  29.4110000  16.3980000  51.0090000
  31.6070000  19.0310000  43.1380000  32.6330000  17.9190000  44.4470000
  30.2510000  20.1900000  42.0810000  26.2230000  17.1670000  52.8090000
  28.4380000  16.4250000  51.9980000  30.2120000  15.9110000  51.1600000
  32.2740000  19.0080000  42.4620000  26.4340000  16.5230000  53.9820000
  25.4080000  17.6350000  52.6730000  28.6100000  15.7660000  53.2520000
  27.6520000  15.8090000  54.2110000  25.7680000  16.5460000  54.6580000
  29.4120000  15.2840000  53.4180000  27.7910000  15.3630000  55.0390000
  29.8040000  25.0330000  75.4490000  29.6330000  25.7090000  74.2250000
  28.8280000  25.0380000  76.4530000  31.0480000  24.3040000  75.6810000
  28.8320000  26.1970000  74.0730000  30.6060000  25.6820000  73.2350000
  28.0140000  25.5100000  76.3220000  28.9990000  24.3580000  77.6660000
  32.0320000  24.2990000  74.6620000  31.2180000  23.6230000  76.8940000
  31.8370000  24.9580000  73.4620000  30.4340000  26.3420000  71.9810000
  28.0140000  24.3630000  78.6850000  30.2430000  23.6290000  77.8980000
  32.8460000  23.8310000  74.8070000  32.0320000  23.1510000  77.0250000
  32.8210000  24.9410000  72.4240000  29.6310000  26.8230000  71.8150000
  31.3920000  26.2990000  71.0230000  28.2100000  23.7030000  79.8860000
  27.2000000  24.8300000  78.5400000  30.4130000  22.9520000  79.1220000
  32.6100000  25.5850000  71.2520000  33.6350000  24.4720000  72.5610000
  31.2530000  26.7440000  70.1950000  27.2260000  23.7200000  80.9230000
  29.4410000  22.9790000  80.1120000  31.2140000  22.4640000  79.2740000
  33.2760000  25.5610000  70.5760000  27.4370000  23.0770000  82.0950000
  26.4110000  24.1890000  80.7870000  29.6120000  22.3190000  81.3660000
  28.6550000  22.3620000  82.3240000  26.7700000  23.1000000  82.7710000
  30.4150000  21.8380000  81.5320000  28.7930000  21.9170000  83.1520000
  29.4750000  21.4770000  35.7270000  29.6450000  20.8000000  36.9520000
  30.4510000  21.4720000  34.7240000  28.2310000  22.2060000  35.4960000
  30.4470000  20.3120000  37.1040000  28.6730000  20.8270000  37.9410000
  31.2640000  20.9990000  34.8550000  30.2800000  22.1520000  33.5110000
  27.2470000  22.2110000  36.5150000  28.0600000  22.8860000  34.2820000
  27.4420000  21.5510000  37.7150000  28.8450000  20.1670000  39.1950000
  31.2650000  22.1470000  32.4920000  29.0360000  22.8810000  33.2790000
  26.4320000  22.6780000  36.3700000  27.2470000  23.3580000  34.1520000
  26.4580000  21.5680000  38.7520000  29.6470000  19.6860000  39.3610000
  27.8870000  20.2100000  40.1540000  31.0690000  22.8060000  31.2910000
  32.0790000  21.6790000  32.6360000  28.8660000  23.5580000  32.0540000
  26.6690000  20.9250000  39.9250000  25.6430000  22.0370000  38.6160000
  28.0250000  19.7650000  40.9820000  32.0530000  22.7890000  30.2540000
  29.8380000  23.5300000  31.0650000  28.0640000  24.0450000  31.9030000
  26.0030000  20.9480000  40.6010000  31.8420000  23.4330000  29.0810000
  32.8680000  22.3200000  30.3900000  29.6660000  24.1900000  29.8110000
  30.6240000  24.1470000  28.8520000  32.5080000  23.4090000  28.4050000
  28.8640000  24.6710000  29.6450000  30.4860000  24.5920000  28.0240000
  30.5400000  32.7110000  75.4490000  30.3690000  33.3880000  74.2250000
  29.5640000  32.7160000  76.4530000  31.7840000  31.9820000  75.6810000
  29.5680000  33.8760000  74.0730000  31.3420000  33.3610000  73.2350000
  28.7500000  33.1890000  76.3220000  29.7350000  32.0360000  77.6660000
  32.7680000  31.9770000  74.6620000  31.9550000  31.3020000  76.8940000
  32.5730000  32.6360000  73.4620000  31.1700000  34.0210000  71.9810000
  28.7500000  32.0410000  78.6850000  30.9790000  31.3070000  77.8980000
  33.5830000  31.5100000  74.8070000  32.7680000  30.8300000  77.0250000
  33.5570000  32.6200000  72.4240000  30.3680000  34.5020000  71.8150000
  32.1280000  33.9780000  71.0230000  28.9460000  31.3820000  79.8860000
  27.9360000  32.5090000  78.5400000  31.1490000  30.6300000  79.1220000
  33.3460000  33.2630000  71.2520000  34.3720000  32.1510000  72.5610000
  31.9890000  34.4230000  70.1950000  27.9620000  31.3990000  80.9230000
  30.1770000  30.6580000  80.1120000  31.9500000  30.1430000  79.2740000
  34.0120000  33.2400000  70.5760000  28.1730000  30.7550000  82.0950000
  27.1470000  31.8680000  80.7870000  30.3480000  29.9980000  81.3660000
  29.3910000  30.0410000  82.3240000  27.5060000  30.7790000  82.7710000
  31.1510000  29.5170000  81.5320000  29.5290000  29.5960000  83.1520000
  28.4720000  14.9230000   7.6140000  28.6430000  14.2460000   8.8380000
  29.4480000  14.9180000   6.6100000  27.2280000  15.6520000   7.3820000
  29.4440000  13.7590000   8.9900000  27.6700000  14.2740000   9.8280000
  30.2620000  14.4450000   6.7410000  29.2780000  15.5980000   5.3970000
  26.2440000  15.6570000   8.4010000  27.0580000  16.3320000   6.1690000
  26.4400000  14.9980000   9.6010000  27.8420000  13.6140000  11.0820000
  30.2620000  15.5930000   4.3780000  28.0340000  16.3270000   5.1650000
  25.4300000  16.1250000   8.2560000  26.2440000  16.8050000   6.0380000
  25.4550000  15.0150000  10.6390000  28.6450000  13.1320000  11.2470000
  26.8840000  13.6570000  12.0400000  30.0660000  16.2520000   3.1770000
  31.0760000  15.1250000   4.5230000  27.8630000  17.0040000   3.9410000
  25.6670000  14.3710000  11.8110000  24.6410000  15.4840000  10.5020000
  27.0230000  13.2120000  12.8680000  31.0510000  16.2350000   2.1400000
  28.8360000  16.9770000   2.9510000  27.0620000  17.4910000   3.7890000
  25.0000000  14.3940000  12.4870000  30.8390000  16.8790000   0.9680000
  31.8650000  15.7670000   2.2760000  28.6640000  17.6360000   1.6970000
  29.6220000  17.5930000   0.7390000  31.5060000  16.8560000   0.2920000
  27.8610000  18.1180000   1.5310000  29.4830000  18.0390000  -0.0890000
  29.5370000  26.1580000  47.3360000  29.3670000  26.8340000  46.1110000
  28.5620000  26.1630000  48.3390000  30.7810000  25.4280000  47.5670000
  28.5660000  27.3220000  45.9590000  30.3390000  26.8070000  45.1220000
  27.7480000  26.6350000  48.2080000  28.7320000  25.4830000  49.5520000
  31.7660000  25.4240000  46.5480000  30.9520000  24.7480000  48.7810000
  31.5700000  26.0830000  45.3480000  30.1680000  27.4670000  43.8680000
  27.7480000  25.4880000  50.5710000  29.9760000  24.7540000  49.7840000
  32.5800000  24.9560000  46.6930000  31.7660000  24.2760000  48.9110000
  32.5540000  26.0660000  44.3110000  29.3650000  27.9480000  43.7020000
  31.1250000  27.4240000  42.9090000  27.9430000  24.8280000  51.7720000
  26.9330000  25.9550000  50.4270000  30.1470000  24.0770000  51.0090000
  32.3430000  26.7100000  43.1380000  33.3690000  25.5970000  44.4470000
  30.9870000  27.8690000  42.0810000  26.9590000  24.8450000  52.8090000
  29.1740000  24.1040000  51.9980000  30.9480000  23.5890000  51.1600000
  33.0100000  26.6860000  42.4620000  27.1700000  24.2020000  53.9820000
  26.1440000  25.3140000  52.6730000  29.3460000  23.4440000  53.2520000
  28.3880000  23.4870000  54.2110000  26.5040000  24.2250000  54.6580000
  30.1490000  22.9630000  53.4180000  28.5270000  23.0420000  55.0390000
  31.0410000  35.9880000  89.5060000  30.8710000  36.6650000  88.2820000
  30.0650000  35.9930000  90.5100000  32.2850000  35.2590000  89.7380000
  30.0690000  37.1520000  88.1300000  31.8430000  36.6380000  87.2920000
  29.2520000  36.4660000  90.3790000  30.2360000  35.3130000  91.7230000
  33.2700000  35.2540000  88.7190000  32.4560000  34.5790000  90.9510000
  33.0740000  35.9130000  87.5180000  31.6710000  37.2970000  86.0380000
  29.2520000  35.3180000  92.7420000  31.4800000  34.5840000  91.9550000
  34.0840000  34.7860000  88.8640000  33.2690000  34.1060000  91.0820000
  34.0580000  35.8960000  86.4810000  30.8690000  37.7790000  85.8720000
  32.6290000  37.2540000  85.0800000  29.4470000  34.6590000  93.9420000
  28.4370000  35.7860000  92.5970000  31.6500000  33.9070000  93.1790000
  33.8470000  36.5400000  85.3090000  34.8730000  35.4280000  86.6170000
  32.4910000  37.7000000  84.2520000  28.4630000  34.6760000  94.9800000
  30.6780000  33.9340000  94.1690000  32.4520000  33.4200000  93.3310000
  34.5130000  36.5170000  84.6320000  28.6740000  34.0320000  96.1520000
  27.6480000  35.1450000  94.8430000  30.8500000  33.2750000  95.4230000
  29.8920000  33.3180000  96.3810000  28.0080000  34.0550000  96.8280000
  31.6520000  32.7930000  95.5880000  30.0300000  32.8730000  97.2090000
  31.2760000  40.3900000  75.4490000  31.1060000  41.0670000  74.2250000
  30.3000000  40.3950000  76.4530000  32.5200000  39.6610000  75.6810000
  30.3040000  41.5540000  74.0730000  32.0780000  41.0390000  73.2350000
  29.4870000  40.8680000  76.3220000  30.4710000  39.7150000  77.6660000
  33.5040000  39.6560000  74.6620000  32.6910000  38.9810000  76.8940000
  33.3090000  40.3150000  73.4620000  31.9060000  41.6990000  71.9810000
  29.4860000  39.7200000  78.6850000  31.7150000  38.9860000  77.8980000
  34.3190000  39.1880000  74.8070000  33.5040000  38.5080000  77.0250000
  34.2930000  40.2980000  72.4240000  31.1040000  42.1800000  71.8150000
  32.8640000  41.6560000  71.0230000  29.6820000  39.0610000  79.8860000
  28.6720000  40.1870000  78.5400000  31.8850000  38.3090000  79.1220000
  34.0820000  40.9420000  71.2520000  35.1080000  39.8290000  72.5610000
  32.7260000  42.1010000  70.1950000  28.6980000  39.0770000  80.9230000
  30.9130000  38.3360000  80.1120000  32.6870000  37.8220000  79.2740000
  34.7480000  40.9190000  70.5760000  28.9090000  38.4340000  82.0950000
  27.8830000  39.5460000  80.7870000  31.0850000  37.6760000  81.3660000
  30.1270000  37.7190000  82.3240000  28.2430000  38.4570000  82.7710000
  31.8870000  37.1950000  81.5320000  30.2650000  37.2740000  83.1520000
  29.7720000  30.5590000  33.2790000  29.6020000  31.2360000  32.0540000
  28.7960000  30.5650000  34.2820000  31.0160000  29.8300000  33.5110000
  28.8010000  31.7240000  31.9030000  30.5740000  31.2090000  31.0650000
  27.9830000  31.0370000  34.1520000  28.9670000  29.8840000  35.4960000
  32.0010000  29.8250000  32.4920000  31.1870000  29.1500000  34.7240000
  31.8050000  30.4850000  31.2910000  30.4030000  31.8690000  29.8110000
  27.9830000  29.8890000  36.5150000  30.2110000  29.1550000  35.7270000
  32.8150000  29.3580000  32.6360000  32.0010000  28.6780000  34.8550000
  32.7890000  30.4680000  30.2540000  29.6000000  32.3500000  29.6450000
  31.3600000  31.8260000  28.8520000  28.1780000  29.2300000  37.7150000
  27.1680000  30.3570000  36.3700000  30.3820000  28.4790000  36.9520000
  32.5780000  31.1110000  29.0810000  33.6040000  29.9990000  30.3900000
  31.2220000  32.2710000  28.0240000  27.1940000  29.2470000  38.7520000
  29.4090000  28.5060000  37.9410000  31.1830000  27.9910000  37.1040000
  33.2450000  31.0880000  28.4050000  27.4050000  28.6030000  39.9250000
  26.3790000  29.7160000  38.6160000  29.5810000  27.8460000  39.1950000
  28.6230000  27.8890000  40.1540000  26.7390000  28.6270000  40.6010000
  30.3830000  27.3650000  39.3610000  28.7620000  27.4440000  40.9820000
  29.2090000  22.6020000   7.6140000  29.3790000  21.9250000   8.8380000
  30.1840000  22.5960000   6.6100000  27.9640000  23.3310000   7.3820000
  30.1800000  21.4370000   8.9900000  28.4060000  21.9520000   9.8280000
  30.9980000  22.1240000   6.7410000  30.0140000  23.2770000   5.3970000
  26.9800000  23.3360000   8.4010000  27.7940000  24.0110000   6.1690000
  27.1760000  22.6760000   9.6010000  28.5780000  21.2920000  11.0820000
  30.9980000  23.2720000   4.3780000  28.7700000  24.0060000   5.1650000
  26.1660000  23.8030000   8.2560000  26.9800000  24.4830000   6.0380000
  26.1920000  22.6930000  10.6390000  29.3810000  20.8110000  11.2470000
  27.6210000  21.3350000  12.0400000  30.8020000  23.9310000   3.1770000
  31.8120000  22.8040000   4.5230000  28.5990000  24.6820000   3.9410000
  26.4030000  22.0500000  11.8110000  25.3770000  23.1620000  10.5020000
  27.7590000  20.8900000  12.8680000  31.7870000  23.9140000   2.1400000
  29.5720000  24.6550000   2.9510000  27.7980000  25.1700000   3.7890000
  25.7360000  22.0730000  12.4870000  31.5760000  24.5580000   0.9680000
  32.6010000  23.4450000   2.2760000  29.4000000  25.3150000   1.6970000
  30.3580000  25.2720000   0.7390000  32.2420000  24.5340000   0.2920000
  28.5970000  25.7960000   1.5310000  30.2190000  25.7170000  -0.0890000
  29.7100000  25.8780000  21.6710000  29.8800000  25.2020000  22.8950000
  30.6860000  25.8730000  20.6670000  28.4660000  26.6080000  21.4390000
  30.6810000  24.7140000  23.0470000  28.9080000  25.2290000  23.8850000
  31.4990000  25.4010000  20.7980000  30.5150000  26.5530000  19.4540000
  27.4810000  26.6120000  22.4580000  28.2950000  27.2880000  20.2260000
  27.6770000  25.9530000  23.6580000  29.0800000  24.5690000  25.1380000
  31.4990000  26.5480000  18.4350000  29.2710000  27.2830000  19.2220000
  26.6670000  27.0800000  22.3130000  27.4820000  27.7600000  20.0950000
  26.6930000  25.9700000  24.6960000  29.8820000  24.0880000  25.3040000
  28.1220000  24.6120000  26.0970000  31.3040000  27.2080000  17.2340000
  32.3140000  26.0810000  18.5800000  29.1000000  27.9590000  17.9980000
  26.9040000  25.3270000  25.8680000  25.8780000  26.4390000  24.5590000
  28.2600000  24.1670000  26.9250000  32.2880000  27.1910000  16.1970000
  30.0730000  27.9320000  17.0080000  28.2990000  28.4470000  17.8460000
  26.2370000  25.3500000  26.5440000  32.0770000  27.8340000  15.0250000
  33.1030000  26.7220000  16.3330000  29.9010000  28.5920000  15.7540000
  30.8590000  28.5490000  14.7950000  32.7430000  27.8110000  14.3480000
  29.0990000  29.0730000  15.5880000  30.7210000  28.9940000  13.9670000
  30.2730000  33.8360000  47.3360000  30.1030000  34.5130000  46.1110000
  29.2980000  33.8410000  48.3390000  31.5180000  33.1070000  47.5670000
  29.3020000  35.0000000  45.9590000  31.0760000  34.4860000  45.1220000
  28.4840000  34.3140000  48.2080000  29.4680000  33.1610000  49.5520000
  32.5020000  33.1020000  46.5480000  31.6880000  32.4270000  48.7810000
  32.3060000  33.7610000  45.3480000  30.9040000  35.1460000  43.8680000
  28.4840000  33.1660000  50.5710000  30.7120000  32.4320000  49.7840000
  33.3160000  32.6340000  46.6930000  32.5020000  31.9540000  48.9110000
  33.2900000  33.7450000  44.3110000  30.1010000  35.6270000  43.7020000
  31.8610000  35.1030000  42.9090000  28.6800000  32.5070000  51.7720000
  27.6700000  33.6340000  50.4270000  30.8830000  31.7550000  51.0090000
  33.0790000  34.3880000  43.1380000  34.1050000  33.2760000  44.4470000
  31.7230000  35.5480000  42.0810000  27.6950000  32.5240000  52.8090000
  29.9100000  31.7830000  51.9980000  31.6840000  31.2680000  51.1600000
  33.7460000  34.3650000  42.4620000  27.9070000  31.8800000  53.9820000
  26.8810000  32.9930000  52.6730000  30.0820000  31.1230000  53.2520000
  29.1240000  31.1660000  54.2110000  27.2400000  31.9030000  54.6580000
  30.8850000  30.6420000  53.4180000  29.2630000  30.7210000  55.0390000
  30.7750000  37.1130000  61.3920000  30.6040000  37.7900000  60.1680000
  29.7990000  37.1180000  62.3960000  32.0190000  36.3840000  61.6240000
  29.8030000  38.2770000  60.0160000  31.5770000  37.7630000  59.1780000
  28.9850000  37.5910000  62.2650000  29.9700000  36.4380000  63.6090000
  33.0030000  36.3790000  60.6050000  32.1890000  35.7040000  62.8370000
  32.8080000  37.0380000  59.4050000  31.4050000  38.4220000  57.9250000
  28.9850000  36.4430000  64.6280000  31.2140000  35.7090000  63.8410000
  33.8170000  35.9110000  60.7500000  33.0030000  35.2310000  62.9680000
  33.7920000  37.0210000  58.3670000  30.6020000  38.9040000  57.7590000
  32.3630000  38.3790000  56.9660000  29.1810000  35.7840000  65.8290000
  28.1710000  36.9110000  64.4830000  31.3840000  35.0320000  65.0650000
  33.5810000  37.6650000  57.1950000  34.6060000  36.5530000  58.5040000
  32.2240000  38.8240000  56.1380000  28.1970000  35.8010000  66.8660000
  30.4110000  35.0590000  66.0550000  32.1850000  34.5450000  65.2170000
  34.2470000  37.6420000  56.5190000  28.4080000  35.1570000  68.0380000
  27.3820000  36.2690000  66.7300000  30.5830000  34.4000000  67.3090000
  29.6260000  34.4430000  68.2680000  27.7410000  35.1800000  68.7150000
  31.3860000  33.9180000  67.4750000  29.7640000  33.9980000  69.0960000
  31.7770000  43.6670000  89.5060000  31.6070000  44.3430000  88.2820000
  30.8010000  43.6720000  90.5100000  33.0210000  42.9380000  89.7380000
  30.8060000  44.8310000  88.1300000  32.5790000  44.3160000  87.2920000
  29.9880000  44.1440000  90.3790000  30.9720000  42.9920000  91.7230000
  34.0060000  42.9330000  88.7190000  33.1920000  42.2570000  90.9510000
  33.8100000  43.5920000  87.5180000  32.4080000  44.9760000  86.0380000
  29.9880000  42.9970000  92.7420000  32.2160000  42.2630000  91.9550000
  34.8200000  42.4650000  88.8640000  34.0060000  41.7850000  91.0820000
  34.7940000  43.5750000  86.4810000  31.6050000  45.4570000  85.8720000
  33.3650000  44.9330000  85.0800000  30.1830000  42.3370000  93.9420000
  29.1730000  43.4640000  92.5970000  32.3870000  41.5860000  93.1790000
  34.5830000  44.2190000  85.3090000  35.6090000  43.1060000  86.6170000
  33.2270000  45.3780000  84.2520000  29.1990000  42.3540000  94.9800000
  31.4140000  41.6130000  94.1690000  33.1880000  41.0980000  93.3310000
  35.2500000  44.1950000  84.6320000  29.4100000  41.7110000  96.1520000
  28.3840000  42.8230000  94.8430000  31.5860000  40.9530000  95.4230000
  30.6280000  40.9960000  96.3810000  28.7440000  41.7340000  96.8280000
  32.3880000  40.4720000  95.5880000  30.7670000  40.5510000  97.2090000
  30.4460000  33.5570000  21.6710000  30.6160000  32.8800000  22.8950000
  31.4220000  33.5520000  20.6670000  29.2020000  34.2860000  21.4390000
  31.4180000  32.3930000  23.0470000  29.6440000  32.9080000  23.8850000
  32.2350000  33.0790000  20.7980000  31.2510000  34.2320000  19.4540000
  28.2170000  34.2910000  22.4580000  29.0310000  34.9660000  20.2260000
  28.4130000  33.6320000  23.6580000  29.8160000  32.2480000  25.1380000
  32.2350000  34.2270000  18.4350000  30.0070000  34.9610000  19.2220000
  27.4030000  34.7590000  22.3130000  28.2180000  35.4390000  20.0950000
  27.4290000  33.6490000  24.6960000  30.6180000  31.7670000  25.3040000
  28.8580000  32.2910000  26.0970000  32.0400000  34.8860000  17.2340000
  33.0500000  33.7590000  18.5800000  29.8370000  35.6380000  17.9980000
  27.6400000  33.0050000  25.8680000  26.6140000  34.1180000  24.5590000
  28.9960000  31.8460000  26.9250000  33.0240000  34.8690000  16.1970000
  30.8090000  35.6110000  17.0080000  29.0350000  36.1250000  17.8460000
  26.9740000  33.0280000  26.5440000  32.8130000  35.5130000  15.0250000
  33.8390000  34.4010000  16.3330000  30.6370000  36.2710000  15.7540000
  31.5950000  36.2270000  14.7950000  33.4790000  35.4900000  14.3480000
  29.8350000  36.7520000  15.5880000  31.4570000  36.6730000  13.9670000
  30.5080000  38.2380000  33.2790000  30.3380000  38.9150000  32.0540000
  29.5330000  38.2430000  34.2820000  31.7520000  37.5090000  33.5110000
  29.5370000  39.4020000  31.9030000  31.3100000  38.8870000  31.0650000
  28.7190000  38.7160000  34.1520000  29.7030000  37.5630000  35.4960000
  32.7370000  37.5040000  32.4920000  31.9230000  36.8290000  34.7240000
  32.5410000  38.1630000  31.2910000  31.1390000  39.5470000  29.8110000
  28.7190000  37.5680000  36.5150000  30.9470000  36.8340000  35.7270000
  33.5510000  37.0360000  32.6360000  32.7370000  36.3560000  34.8550000
  33.5250000  38.1460000  30.2540000  30.3360000  40.0290000  29.6450000
  32.0960000  39.5040000  28.8520000  28.9140000  36.9090000  37.7150000
  27.9040000  38.0360000  36.3700000  31.1180000  36.1570000  36.9520000
  33.3140000  38.7900000  29.0810000  34.3400000  37.6770000  30.3900000
  31.9580000  39.9490000  28.0240000  27.9300000  36.9260000  38.7520000
  30.1450000  36.1840000  37.9410000  31.9190000  35.6700000  37.1040000
  33.9810000  38.7670000  28.4050000  28.1410000  36.2820000  39.9250000
  27.1150000  37.3940000  38.6160000  30.3170000  35.5250000  39.1950000
  29.3590000  35.5680000  40.1540000  27.4750000  36.3050000  40.6010000
  31.1200000  35.0430000  39.3610000  29.4980000  35.1220000  40.9820000
  31.0100000  41.5150000  47.3360000  30.8390000  42.1920000  46.1110000
  30.0340000  41.5200000  48.3390000  32.2540000  40.7860000  47.5670000
  30.0380000  42.6790000  45.9590000  31.8120000  42.1640000  45.1220000
  29.2200000  41.9920000  48.2080000  30.2040000  40.8400000  49.5520000
  33.2380000  40.7810000  46.5480000  32.4240000  40.1060000  48.7810000
  33.0420000  41.4400000  45.3480000  31.6400000  42.8240000  43.8680000
  29.2200000  40.8450000  50.5710000  31.4480000  40.1110000  49.7840000
  34.0520000  40.3130000  46.6930000  33.2380000  39.6330000  48.9110000
  34.0270000  41.4230000  44.3110000  30.8370000  43.3050000  43.7020000
  32.5980000  42.7810000  42.9090000  29.4160000  40.1860000  51.7720000
  28.4060000  41.3120000  50.4270000  31.6190000  39.4340000  51.0090000
  33.8150000  42.0670000  43.1380000  34.8410000  40.9540000  44.4470000
  32.4590000  43.2260000  42.0810000  28.4310000  40.2020000  52.8090000
  30.6460000  39.4610000  51.9980000  32.4200000  38.9460000  51.1600000
  34.4820000  42.0430000  42.4620000  28.6430000  39.5590000  53.9820000
  27.6170000  40.6710000  52.6730000  30.8180000  38.8010000  53.2520000
  29.8600000  38.8440000  54.2110000  27.9760000  39.5820000  54.6580000
  31.6210000  38.3200000  53.4180000  29.9990000  38.3990000  55.0390000
  31.5110000  44.7920000  61.3920000  31.3400000  45.4680000  60.1680000
  30.5350000  44.7970000  62.3960000  32.7550000  44.0620000  61.6240000
  30.5390000  45.9560000  60.0160000  32.3130000  45.4410000  59.1780000
  29.7210000  45.2690000  62.2650000  30.7060000  44.1170000  63.6090000
  33.7390000  44.0580000  60.6050000  32.9260000  43.3820000  62.8370000
  33.5440000  44.7170000  59.4050000  32.1410000  46.1010000  57.9250000
  29.7210000  44.1220000  64.6280000  31.9500000  43.3880000  63.8410000
  34.5540000  43.5900000  60.7500000  33.7390000  42.9100000  62.9680000
  34.5280000  44.7000000  58.3670000  31.3390000  46.5820000  57.7590000
  33.0990000  46.0580000  56.9660000  29.9170000  43.4620000  65.8290000
  28.9070000  44.5890000  64.4830000  32.1200000  42.7110000  65.0650000
  34.3170000  45.3440000  57.1950000  35.3430000  44.2310000  58.5040000
  32.9600000  46.5030000  56.1380000  28.9330000  43.4790000  66.8660000
  31.1480000  42.7380000  66.0550000  32.9210000  42.2230000  65.2170000
  34.9830000  45.3200000  56.5190000  29.1440000  42.8360000  68.0380000
  28.1180000  43.9480000  66.7300000  31.3190000  42.0780000  67.3090000
  30.3620000  42.1210000  68.2680000  28.4770000  42.8590000  68.7150000
  32.1220000  41.5970000  67.4750000  30.5000000  41.6760000  69.0960000
  32.0120000  48.0680000  75.4490000  31.8420000  48.7450000  74.2250000
  31.0360000  48.0740000  76.4530000  33.2560000  47.3390000  75.6810000
  31.0400000  49.2330000  74.0730000  32.8140000  48.7180000  73.2350000
  30.2230000  48.5460000  76.3220000  31.2070000  47.3940000  77.6660000
  34.2410000  47.3340000  74.6620000  33.4270000  46.6590000  76.8940000
  34.0450000  47.9940000  73.4620000  32.6420000  49.3780000  71.9810000
  30.2230000  47.3980000  78.6850000  32.4510000  46.6640000  77.8980000
  35.0550000  46.8670000  74.8070000  34.2400000  46.1870000  77.0250000
  35.0290000  47.9770000  72.4240000  31.8400000  49.8590000  71.8150000
  33.6000000  49.3350000  71.0230000  30.4180000  46.7390000  79.8860000
  29.4080000  47.8660000  78.5400000  32.6210000  45.9880000  79.1220000
  34.8180000  48.6200000  71.2520000  35.8440000  47.5080000  72.5610000
  33.4620000  49.7800000  70.1950000  29.4340000  46.7560000  80.9230000
  31.6490000  46.0150000  80.1120000  33.4230000  45.5000000  79.2740000
  35.4840000  48.5970000  70.5760000  29.6450000  46.1120000  82.0950000
  28.6190000  47.2250000  80.7870000  31.8210000  45.3550000  81.3660000
  30.8630000  45.3980000  82.3240000  28.9790000  46.1360000  82.7710000
  32.6230000  44.8740000  81.5320000  31.0010000  44.9530000  83.1520000
  32.5130000  51.3450000  89.5060000  32.3430000  52.0220000  88.2820000
  31.5380000  51.3500000  90.5100000  33.7570000  50.6160000  89.7380000
  31.5420000  52.5100000  88.1300000  33.3150000  51.9950000  87.2920000
  30.7240000  51.8230000  90.3790000  31.7080000  50.6700000  91.7230000
  34.7420000  50.6110000  88.7190000  33.9280000  49.9360000  90.9510000
  34.5460000  51.2710000  87.5180000  33.1440000  52.6550000  86.0380000
  30.7240000  50.6750000  92.7420000  32.9520000  49.9410000  91.9550000
  35.5560000  50.1440000  88.8640000  34.7420000  49.4640000  91.0820000
  35.5300000  51.2540000  86.4810000  32.3410000  53.1360000  85.8720000
  34.1010000  52.6120000  85.0800000  30.9190000  50.0160000  93.9420000
  29.9100000  51.1430000  92.5970000  33.1230000  49.2640000  93.1790000
  35.3190000  51.8970000  85.3090000  36.3450000  50.7850000  86.6170000
  33.9630000  53.0570000  84.2520000  29.9350000  50.0330000  94.9800000
  32.1500000  49.2920000  94.1690000  33.9240000  48.7770000  93.3310000
  35.9860000  51.8740000  84.6320000  30.1460000  49.3890000  96.1520000
  29.1210000  50.5020000  94.8430000  32.3220000  48.6320000  95.4230000
  31.3640000  48.6750000  96.3810000  29.4800000  49.4130000  96.8280000
  33.1250000  48.1510000  95.5880000  31.5030000  48.2300000  97.2090000
  29.9450000  30.2800000   7.6140000  30.1150000  29.6030000   8.8380000
  30.9200000  30.2750000   6.6100000  28.7010000  31.0090000   7.3820000
  30.9160000  29.1160000   8.9900000  29.1430000  29.6310000   9.8280000
  31.7340000  29.8030000   6.7410000  30.7500000  30.9550000   5.3970000
  27.7160000  31.0140000   8.4010000  28.5300000  31.6890000   6.1690000
  27.9120000  30.3550000   9.6010000  29.3140000  28.9710000  11.0820000
  31.7340000  30.9500000   4.3780000  29.5060000  31.6840000   5.1650000
  26.9020000  31.4820000   8.2560000  27.7160000  32.1620000   6.0380000
  26.9280000  30.3720000  10.6390000  30.1170000  28.4900000  11.2470000
  28.3570000  29.0140000  12.0400000  31.5390000  31.6100000   3.1770000
  32.5490000  30.4830000   4.5230000  29.3350000  32.3610000   3.9410000
  27.1390000  29.7280000  11.8110000  26.1130000  30.8410000  10.5020000
  28.4950000  28.5690000  12.8680000  32.5230000  31.5930000   2.1400000
  30.3080000  32.3340000   2.9510000  28.5340000  32.8490000   3.7890000
  26.4720000  29.7520000  12.4870000  32.3120000  32.2360000   0.9680000
  33.3380000  31.1240000   2.2760000  30.1360000  32.9940000   1.6970000
  31.0940000  32.9510000   0.7390000  32.9780000  32.2130000   0.2920000
  29.3330000  33.4750000   1.5310000  30.9550000  33.3960000  -0.0890000
  31.2440000  45.9170000  33.2790000  31.0740000  46.5930000  32.0540000
  30.2690000  45.9220000  34.2820000  32.4890000  45.1870000  33.5110000
  30.2730000  47.0810000  31.9030000  32.0470000  46.5660000  31.0650000
  29.4550000  46.3940000  34.1520000  30.4390000  45.2420000  35.4960000
  33.4730000  45.1830000  32.4920000  32.6590000  44.5070000  34.7240000
  33.2770000  45.8420000  31.2910000  31.8750000  47.2260000  29.8110000
  29.4550000  45.2470000  36.5150000  31.6830000  44.5120000  35.7270000
  34.2870000  44.7150000  32.6360000  33.4730000  44.0350000  34.8550000
  34.2610000  45.8250000  30.2540000  31.0720000  47.7070000  29.6450000
  32.8320000  47.1830000  28.8520000  29.6510000  44.5870000  37.7150000
  28.6410000  45.7140000  36.3700000  31.8540000  43.8360000  36.9520000
  34.0500000  46.4680000  29.0810000  35.0760000  45.3560000  30.3900000
  32.6940000  47.6280000  28.0240000  28.6660000  44.6040000  38.7520000
  30.8810000  43.8630000  37.9410000  32.6550000  43.3480000  37.1040000
  34.7170000  46.4450000  28.4050000  28.8770000  43.9610000  39.9250000
  27.8520000  45.0730000  38.6160000  31.0530000  43.2030000  39.1950000
  30.0950000  43.2460000  40.1540000  28.2110000  43.9840000  40.6010000
  31.8560000  42.7220000  39.3610000  30.2340000  42.8010000  40.9820000
  31.7460000  49.1930000  47.3360000  31.5750000  49.8700000  46.1110000
  30.7700000  49.1990000  48.3390000  32.9900000  48.4640000  47.5670000
  30.7740000  50.3580000  45.9590000  32.5480000  49.8430000  45.1220000
  29.9560000  49.6710000  48.2080000  30.9410000  48.5180000  49.5520000
  33.9740000  48.4590000  46.5480000  33.1600000  47.7840000  48.7810000
  33.7790000  49.1190000  45.3480000  32.3760000  50.5030000  43.8680000
  29.9560000  48.5230000  50.5710000  32.1850000  47.7890000  49.7840000
  34.7880000  47.9920000  46.6930000  33.9740000  47.3120000  48.9110000
  34.7630000  49.1020000  44.3110000  31.5730000  50.9840000  43.7020000
  33.3340000  50.4600000  42.9090000  30.1520000  47.8640000  51.7720000
  29.1420000  48.9910000  50.4270000  32.3550000  47.1130000  51.0090000
  34.5520000  49.7450000  43.1380000  35.5770000  48.6330000  44.4470000
  33.1950000  50.9050000  42.0810000  29.1680000  47.8810000  52.8090000
  31.3820000  47.1400000  51.9980000  33.1560000  46.6250000  51.1600000
  35.2180000  49.7220000  42.4620000  29.3790000  47.2370000  53.9820000
  28.3530000  48.3500000  52.6730000  31.5540000  46.4800000  53.2520000
  30.5970000  46.5230000  54.2110000  28.7120000  47.2610000  54.6580000
  32.3570000  45.9990000  53.4180000  30.7350000  46.0780000  55.0390000
  30.2420000  39.3630000   5.1650000  30.0710000  40.0400000   3.9410000
  29.2660000  39.3680000   6.1690000  31.4860000  38.6340000   5.3970000
  29.2700000  40.5270000   3.7890000  31.0440000  40.0120000   2.9510000
  28.4520000  39.8410000   6.0380000  29.4370000  38.6880000   7.3820000
  32.4700000  38.6290000   4.3780000  31.6570000  37.9540000   6.6100000
  32.2750000  39.2880000   3.1770000  30.8720000  40.6720000   1.6970000
  28.4520000  38.6930000   8.4010000  30.6810000  37.9590000   7.6140000
  33.2850000  38.1610000   4.5230000  32.4700000  37.4810000   6.7410000
  33.2590000  39.2710000   2.1400000  30.0700000  41.1530000   1.5310000
  31.8300000  40.6290000   0.7390000  28.6480000  38.0340000   9.6010000
  27.6380000  39.1610000   8.2560000  30.8510000  37.2820000   8.8380000
  33.0480000  39.9150000   0.9680000  34.0740000  38.8020000   2.2760000
  31.6910000  41.0740000  -0.0890000  27.6640000  38.0500000  10.6390000
  29.8790000  37.3090000   9.8280000  31.6520000  36.7950000   8.9900000
  33.7140000  39.8920000   0.2920000  27.8750000  37.4070000  11.8110000
  26.8490000  38.5190000  10.5020000  30.0500000  36.6490000  11.0820000
  29.0930000  36.6920000  12.0400000  27.2080000  37.4300000  12.4870000
  30.8530000  36.1680000  11.2470000  29.2310000  36.2470000  12.8680000
  32.7480000  55.7470000  75.4490000  32.5780000  56.4240000  74.2250000
  31.7720000  55.7520000  76.4530000  33.9920000  55.0180000  75.6810000
  31.7770000  56.9110000  74.0730000  33.5500000  56.3970000  73.2350000
  30.9590000  56.2250000  76.3220000  31.9430000  55.0720000  77.6660000
  34.9770000  55.0130000  74.6620000  34.1630000  54.3380000  76.8940000
  34.7810000  55.6720000  73.4620000  33.3790000  57.0560000  71.9810000
  30.9590000  55.0770000  78.6850000  33.1870000  54.3430000  77.8980000
  35.7910000  54.5450000  74.8070000  34.9770000  53.8650000  77.0250000
  35.7650000  55.6550000  72.4240000  32.5760000  57.5380000  71.8150000
  34.3360000  57.0130000  71.0230000  31.1540000  54.4180000  79.8860000
  30.1440000  55.5450000  78.5400000  33.3580000  53.6660000  79.1220000
  35.5540000  56.2990000  71.2520000  36.5800000  55.1870000  72.5610000
  34.1980000  57.4580000  70.1950000  30.1700000  54.4350000  80.9230000
  32.3850000  53.6930000  80.1120000  34.1590000  53.1790000  79.2740000
  36.2210000  56.2760000  70.5760000  30.3810000  53.7910000  82.0950000
  29.3550000  54.9030000  80.7870000  32.5570000  53.0340000  81.3660000
  31.5990000  53.0770000  82.3240000  29.7150000  53.8140000  82.7710000
  33.3590000  52.5520000  81.5320000  31.7380000  52.6320000  83.1520000
  33.2490000  59.0240000  89.5060000  33.0790000  59.7010000  88.2820000
  32.2740000  59.0290000  90.5100000  34.4940000  58.2950000  89.7380000
  32.2780000  60.1880000  88.1300000  34.0520000  59.6730000  87.2920000
  31.4600000  59.5020000  90.3790000  32.4440000  58.3490000  91.7230000
  35.4780000  58.2900000  88.7190000  34.6640000  57.6150000  90.9510000
  35.2820000  58.9490000  87.5180000  33.8800000  60.3330000  86.0380000
  31.4600000  58.3540000  92.7420000  33.6880000  57.6200000  91.9550000
  36.2920000  57.8220000  88.8640000  35.4780000  57.1420000  91.0820000
  36.2670000  58.9320000  86.4810000  33.0770000  60.8140000  85.8720000
  34.8370000  60.2900000  85.0800000  31.6560000  57.6950000  93.9420000
  30.6460000  58.8220000  92.5970000  33.8590000  56.9430000  93.1790000
  36.0550000  59.5760000  85.3090000  37.0810000  58.4630000  86.6170000
  34.6990000  60.7350000  84.2520000  30.6710000  57.7110000  94.9800000
  32.8860000  56.9700000  94.1690000  34.6600000  56.4560000  93.3310000
  36.7220000  59.5530000  84.6320000  30.8830000  57.0680000  96.1520000
  29.8570000  58.1800000  94.8430000  33.0580000  56.3100000  95.4230000
  32.1000000  56.3530000  96.3810000  30.2160000  57.0910000  96.8280000
  33.8610000  55.8290000  95.5880000  32.2390000  55.9080000  97.2090000
  32.2470000  52.4700000  61.3920000  32.0770000  53.1470000  60.1680000
  31.2710000  52.4750000  62.3960000  33.4910000  51.7410000  61.6240000
  31.2750000  53.6340000  60.0160000  33.0490000  53.1200000  59.1780000
  30.4580000  52.9480000  62.2650000  31.4420000  51.7950000  63.6090000
  34.4750000  51.7360000  60.6050000  33.6620000  51.0610000  62.8370000
  34.2800000  52.3950000  59.4050000  32.8770000  53.7800000  57.9250000
  30.4570000  51.8000000  64.6280000  32.6860000  51.0660000  63.8410000
  35.2900000  51.2690000  60.7500000  34.4750000  50.5890000  62.9680000
  35.2640000  52.3790000  58.3670000  32.0750000  54.2610000  57.7590000
  33.8350000  53.7370000  56.9660000  30.6530000  51.1410000  65.8290000
  29.6430000  52.2680000  64.4830000  32.8560000  50.3890000  65.0650000
  35.0530000  53.0220000  57.1950000  36.0790000  51.9100000  58.5040000
  33.6970000  54.1820000  56.1380000  29.6690000  51.1580000  66.8660000
  31.8840000  50.4170000  66.0550000  33.6570000  49.9020000  65.2170000
  35.7190000  52.9990000  56.5190000  29.8800000  50.5140000  68.0380000
  28.8540000  51.6270000  66.7300000  32.0560000  49.7570000  67.3090000
  31.0980000  49.8000000  68.2680000  29.2140000  50.5370000  68.7150000
  32.8580000  49.2760000  67.4750000  31.2360000  49.3550000  69.0960000
  31.4790000  50.3180000  19.2220000  31.3090000  50.9950000  17.9980000
  30.5040000  50.3230000  20.2260000  32.7230000  49.5890000  19.4540000
  30.5080000  51.4830000  17.8460000  32.2810000  50.9680000  17.0080000
  29.6900000  50.7960000  20.0950000  30.6740000  49.6430000  21.4390000
  33.7080000  49.5840000  18.4350000  32.8940000  48.9090000  20.6670000
  33.5120000  50.2440000  17.2340000  32.1100000  51.6280000  15.7540000
  29.6900000  49.6480000  22.4580000  31.9180000  48.9140000  21.6710000
  34.5220000  49.1170000  18.5800000  33.7080000  48.4370000  20.7980000
  34.4960000  50.2270000  16.1970000  31.3070000  52.1090000  15.5880000
  33.0670000  51.5850000  14.7950000  29.8850000  48.9890000  23.6580000
  28.8750000  50.1160000  22.3130000  32.0890000  48.2380000  22.8950000
  34.2850000  50.8700000  15.0250000  35.3110000  49.7580000  16.3330000
  32.9290000  52.0300000  13.9670000  28.9010000  49.0060000  24.6960000
  31.1160000  48.2650000  23.8850000  32.8900000  47.7500000  23.0470000
  34.9520000  50.8470000  14.3480000  29.1120000  48.3620000  25.8680000
  28.0860000  49.4750000  24.5590000  31.2880000  47.6050000  25.1380000
  30.3300000  47.6480000  26.0970000  28.4460000  48.3860000  26.5440000
  32.0900000  47.1240000  25.3040000  30.4690000  47.2030000  26.9250000
  31.9810000  53.5950000  33.2790000  31.8100000  54.2720000  32.0540000
  31.0050000  53.6000000  34.2820000  33.2250000  52.8660000  33.5110000
  31.0090000  54.7590000  31.9030000  32.7830000  54.2450000  31.0650000
  30.1910000  54.0730000  34.1520000  31.1750000  52.9200000  35.4960000
  34.2090000  52.8610000  32.4920000  33.3950000  52.1860000  34.7240000
  34.0130000  53.5200000  31.2910000  32.6110000  54.9050000  29.8110000
  30.1910000  52.9250000  36.5150000  32.4190000  52.1910000  35.7270000
  35.0230000  52.3930000  32.6360000  34.2090000  51.7130000  34.8550000
  34.9980000  53.5040000  30.2540000  31.8080000  55.3860000  29.6450000
  33.5690000  54.8620000  28.8520000  30.3870000  52.2660000  37.7150000
  29.3770000  53.3930000  36.3700000  32.5900000  51.5140000  36.9520000
  34.7860000  54.1470000  29.0810000  35.8120000  53.0350000  30.3900000
  33.4300000  55.3070000  28.0240000  29.4020000  52.2830000  38.7520000
  31.6170000  51.5420000  37.9410000  33.3910000  51.0270000  37.1040000
  35.4530000  54.1240000  28.4050000  29.6140000  51.6390000  39.9250000
  28.5880000  52.7520000  38.6160000  31.7890000  50.8820000  39.1950000
  30.8310000  50.9250000  40.1540000  28.9470000  51.6620000  40.6010000
  32.5920000  50.4010000  39.3610000  30.9700000  50.4800000  40.9820000
  32.4820000  56.8720000  47.3360000  32.3110000  57.5490000  46.1110000
  31.5060000  56.8770000  48.3390000  33.7260000  56.1430000  47.5670000
  31.5100000  58.0360000  45.9590000  33.2840000  57.5220000  45.1220000
  30.6920000  57.3500000  48.2080000  31.6770000  56.1970000  49.5520000
  34.7100000  56.1380000  46.5480000  33.8960000  55.4630000  48.7810000
  34.5150000  56.7970000  45.3480000  33.1120000  58.1810000  43.8680000
  30.6920000  56.2020000  50.5710000  32.9210000  55.4680000  49.7840000
  35.5250000  55.6700000  46.6930000  34.7100000  54.9900000  48.9110000
  35.4990000  56.7800000  44.3110000  32.3100000  58.6630000  43.7020000
  34.0700000  58.1380000  42.9090000  30.8880000  55.5430000  51.7720000
  29.8780000  56.6700000  50.4270000  33.0910000  54.7910000  51.0090000
  35.2880000  57.4240000  43.1380000  36.3140000  56.3110000  44.4470000
  33.9310000  58.5830000  42.0810000  29.9040000  55.5600000  52.8090000
  32.1190000  54.8180000  51.9980000  33.8920000  54.3040000  51.1600000
  35.9540000  57.4010000  42.4620000  30.1150000  54.9160000  53.9820000
  29.0890000  56.0280000  52.6730000  32.2900000  54.1590000  53.2520000
  31.3330000  54.2020000  54.2110000  29.4480000  54.9390000  54.6580000
  33.0930000  53.6770000  53.4180000  31.4710000  53.7560000  55.0390000
  31.4170000  45.6370000   7.6140000  31.5870000  44.9610000   8.8380000
  32.3930000  45.6320000   6.6100000  30.1730000  46.3670000   7.3820000
  32.3890000  44.4730000   8.9900000  30.6150000  44.9880000   9.8280000
  33.2060000  45.1600000   6.7410000  32.2220000  46.3120000   5.3970000
  29.1880000  46.3710000   8.4010000  30.0020000  47.0470000   6.1690000
  29.3840000  45.7120000   9.6010000  30.7870000  44.3280000  11.0820000
  33.2060000  46.3070000   4.3780000  30.9780000  47.0420000   5.1650000
  28.3740000  46.8390000   8.2560000  29.1890000  47.5190000   6.0380000
  28.4000000  45.7290000  10.6390000  31.5890000  43.8470000  11.2470000
  29.8290000  44.3710000  12.0400000  33.0110000  46.9670000   3.1770000
  34.0210000  45.8400000   4.5230000  30.8080000  47.7180000   3.9410000
  28.6110000  45.0860000  11.8110000  27.5850000  46.1980000  10.5020000
  29.9670000  43.9260000  12.8680000  33.9950000  46.9500000   2.1400000
  31.7800000  47.6910000   2.9510000  30.0060000  48.2060000   3.7890000
  27.9450000  45.1090000  12.4870000  33.7840000  47.5930000   0.9680000
  34.8100000  46.4810000   2.2760000  31.6080000  48.3510000   1.6970000
  32.5660000  48.3080000   0.7390000  34.4500000  47.5700000   0.2920000
  30.8060000  48.8320000   1.5310000  32.4280000  48.7530000  -0.0890000
  32.9830000  60.1490000  61.3920000  32.8130000  60.8260000  60.1680000
  32.0070000  60.1540000  62.3960000  34.2270000  59.4200000  61.6240000
  32.0110000  61.3130000  60.0160000  33.7850000  60.7980000  59.1780000
  31.1940000  60.6260000  62.2650000  32.1780000  59.4740000  63.6090000
  35.2120000  59.4150000  60.6050000  34.3980000  58.7400000  62.8370000
  35.0160000  60.0740000  59.4050000  33.6130000  61.4580000  57.9250000
  31.1940000  59.4790000  64.6280000  33.4220000  58.7450000  63.8410000
  36.0260000  58.9470000  60.7500000  35.2110000  58.2670000  62.9680000
  36.0000000  60.0570000  58.3670000  32.8110000  61.9390000  57.7590000
  34.5710000  61.4150000  56.9660000  31.3890000  58.8200000  65.8290000
  30.3790000  59.9460000  64.4830000  33.5920000  58.0680000  65.0650000
  35.7890000  60.7010000  57.1950000  36.8150000  59.5880000  58.5040000
  34.4330000  61.8600000  56.1380000  30.4050000  58.8360000  66.8660000
  32.6200000  58.0950000  66.0550000  34.3940000  57.5800000  65.2170000
  36.4550000  60.6770000  56.5190000  30.6160000  58.1930000  68.0380000
  29.5900000  59.3050000  66.7300000  32.7920000  57.4350000  67.3090000
  31.8340000  57.4780000  68.2680000  29.9500000  58.2160000  68.7150000
  33.5940000  56.9540000  67.4750000  31.9720000  57.0330000  69.0960000
  33.9230000  62.0220000  77.8980000  34.0940000  61.3450000  79.1220000
  34.8990000  62.0160000  76.8940000  32.6790000  62.7510000  77.6660000
  34.8950000  60.8570000  79.2740000  33.1210000  61.3720000  80.1120000
  35.7130000  61.5440000  77.0250000  34.7280000  62.6970000  75.6810000
  31.6950000  62.7560000  78.6850000  32.5090000  63.4310000  76.4530000
  31.8900000  62.0960000  79.8860000  33.2930000  60.7120000  81.3660000
  35.7130000  62.6920000  74.6620000  33.4840000  63.4260000  75.4490000
  30.8800000  63.2230000  78.5400000  31.6950000  63.9030000  76.3220000
  30.9060000  62.1130000  80.9230000  34.0960000  60.2310000  81.5320000
  32.3350000  60.7550000  82.3240000  35.5170000  63.3510000  73.4620000
  36.5270000  62.2240000  74.8070000  33.3140000  64.1020000  74.2250000
  31.1170000  61.4700000  82.0950000  30.0910000  62.5820000  80.7870000
  32.4740000  60.3100000  83.1520000  36.5010000  63.3340000  72.4240000
  34.2860000  64.0750000  73.2350000  32.5130000  64.5900000  74.0730000
  30.4510000  61.4930000  82.7710000  36.2900000  63.9780000  71.2520000
  37.3160000  62.8650000  72.5610000  34.1150000  64.7350000  71.9810000
  35.0720000  64.6920000  71.0230000  36.9570000  63.9540000  70.5760000
  33.3120000  65.2160000  71.8150000  34.9340000  65.1370000  70.1950000
  33.9860000  66.7030000  89.5060000  33.8150000  67.3790000  88.2820000
  33.0100000  66.7080000  90.5100000  35.2300000  65.9730000  89.7380000
  33.0140000  67.8670000  88.1300000  34.7880000  67.3520000  87.2920000
  32.1960000  67.1800000  90.3790000  33.1800000  66.0280000  91.7230000
  36.2140000  65.9680000  88.7190000  35.4000000  65.2930000  90.9510000
  36.0180000  66.6280000  87.5180000  34.6160000  68.0120000  86.0380000
  32.1960000  66.0320000  92.7420000  34.4250000  65.2980000  91.9550000
  37.0280000  65.5010000  88.8640000  36.2140000  64.8210000  91.0820000
  37.0030000  66.6110000  86.4810000  33.8130000  68.4930000  85.8720000
  35.5740000  67.9690000  85.0800000  32.3920000  65.3730000  93.9420000
  31.3820000  66.5000000  92.5970000  34.5950000  64.6220000  93.1790000
  36.7910000  67.2540000  85.3090000  37.8170000  66.1420000  86.6170000
  35.4350000  68.4140000  84.2520000  31.4070000  65.3900000  94.9800000
  33.6220000  64.6490000  94.1690000  35.3960000  64.1340000  93.3310000
  37.4580000  67.2310000  84.6320000  31.6190000  64.7470000  96.1520000
  30.5930000  65.8590000  94.8430000  33.7940000  63.9890000  95.4230000
  32.8370000  64.0320000  96.3810000  30.9520000  64.7700000  96.8280000
  34.5970000  63.5080000  95.5880000  32.9750000  63.5870000  97.2090000
  32.7170000  61.2740000  33.2790000  32.5460000  61.9500000  32.0540000
  31.7410000  61.2790000  34.2820000  33.9610000  60.5450000  33.5110000
  31.7450000  62.4380000  31.9030000  33.5190000  61.9230000  31.0650000
  30.9270000  61.7510000  34.1520000  31.9110000  60.5990000  35.4960000
  34.9450000  60.5400000  32.4920000  34.1310000  59.8650000  34.7240000
  34.7490000  61.1990000  31.2910000  33.3470000  62.5830000  29.8110000
  30.9270000  60.6040000  36.5150000  33.1560000  59.8700000  35.7270000
  35.7590000  60.0720000  32.6360000  34.9450000  59.3920000  34.8550000
  35.7340000  61.1820000  30.2540000  32.5440000  63.0640000  29.6450000
  34.3050000  62.5400000  28.8520000  31.1230000  59.9440000  37.7150000
  30.1130000  61.0710000  36.3700000  33.3260000  59.1930000  36.9520000
  35.5230000  61.8260000  29.0810000  36.5480000  60.7130000  30.3900000
  34.1660000  62.9850000  28.0240000  30.1390000  59.9610000  38.7520000
  32.3530000  59.2200000  37.9410000  34.1270000  58.7050000  37.1040000
  36.1890000  61.8020000  28.4050000  30.3500000  59.3180000  39.9250000
  29.3240000  60.4300000  38.6160000  32.5250000  58.5600000  39.1950000
  31.5680000  58.6030000  40.1540000  29.6830000  59.3410000  40.6010000
  33.3280000  58.0790000  39.3610000  31.7060000  58.1580000  40.9820000
  33.2180000  64.5510000  47.3360000  33.0470000  65.2270000  46.1110000
  32.2420000  64.5560000  48.3390000  34.4620000  63.8210000  47.5670000
  32.2460000  65.7150000  45.9590000  34.0200000  65.2000000  45.1220000
  31.4290000  65.0280000  48.2080000  32.4130000  63.8760000  49.5520000
  35.4460000  63.8170000  46.5480000  34.6330000  63.1410000  48.7810000
  35.2510000  64.4760000  45.3480000  33.8480000  65.8600000  43.8680000
  31.4280000  63.8810000  50.5710000  33.6570000  63.1460000  49.7840000
  36.2610000  63.3490000  46.6930000  35.4460000  62.6690000  48.9110000
  36.2350000  64.4590000  44.3110000  33.0460000  66.3410000  43.7020000
  34.8060000  65.8170000  42.9090000  31.6240000  63.2210000  51.7720000
  30.6140000  64.3480000  50.4270000  33.8270000  62.4700000  51.0090000
  36.0240000  65.1020000  43.1380000  37.0500000  63.9900000  44.4470000
  34.6680000  66.2620000  42.0810000  30.6400000  63.2380000  52.8090000
  32.8550000  62.4970000  51.9980000  34.6280000  61.9820000  51.1600000
  36.6900000  65.0790000  42.4620000  30.8510000  62.5950000  53.9820000
  29.8250000  63.7070000  52.6730000  33.0270000  61.8370000  53.2520000
  32.0690000  61.8800000  54.2110000  30.1840000  62.6180000  54.6580000
  33.8290000  61.3560000  53.4180000  32.2070000  61.4350000  55.0390000
  32.1530000  53.3160000   7.6140000  32.3230000  52.6390000   8.8380000
  33.1290000  53.3110000   6.6100000  30.9090000  54.0450000   7.3820000
  33.1250000  52.1520000   8.9900000  31.3510000  52.6660000   9.8280000
  33.9420000  52.8380000   6.7410000  32.9580000  53.9910000   5.3970000
  29.9250000  54.0500000   8.4010000  30.7380000  54.7250000   6.1690000
  30.1200000  53.3910000   9.6010000  31.5230000  52.0070000  11.0820000
  33.9430000  53.9860000   4.3780000  31.7140000  54.7200000   5.1650000
  29.1100000  54.5180000   8.2560000  29.9250000  55.1980000   6.0380000
  29.1360000  53.4080000  10.6390000  32.3250000  51.5250000  11.2470000
  30.5650000  52.0500000  12.0400000  33.7470000  54.6450000   3.1770000
  34.7570000  53.5180000   4.5230000  31.5440000  55.3970000   3.9410000
  29.3470000  52.7640000  11.8110000  28.3210000  53.8770000  10.5020000
  30.7030000  51.6050000  12.8680000  34.7310000  54.6280000   2.1400000
  32.5160000  55.3700000   2.9510000  30.7430000  55.8840000   3.7890000
  28.6810000  52.7870000  12.4870000  34.5200000  55.2720000   0.9680000
  35.5460000  54.1600000   2.2760000  32.3440000  56.0290000   1.6970000
  33.3020000  55.9860000   0.7390000  35.1860000  55.2490000   0.2920000
  31.5420000  56.5110000   1.5310000  33.1640000  56.4320000  -0.0890000
  34.2200000  71.1040000  75.4490000  34.0500000  71.7810000  74.2250000
  33.2450000  71.1090000  76.4530000  35.4650000  70.3750000  75.6810000
  33.2490000  72.2690000  74.0730000  35.0230000  71.7540000  73.2350000
  32.4310000  71.5820000  76.3220000  33.4150000  70.4290000  77.6660000
  36.4490000  70.3700000  74.6620000  35.6350000  69.6950000  76.8940000
  36.2530000  71.0290000  73.4620000  34.8510000  72.4140000  71.9810000
  32.4310000  70.4340000  78.6850000  34.6590000  69.7000000  77.8980000
  37.2630000  69.9030000  74.8070000  36.4490000  69.2230000  77.0250000
  37.2370000  71.0130000  72.4240000  34.0480000  72.8950000  71.8150000
  35.8080000  72.3710000  71.0230000  32.6270000  69.7750000  79.8860000
  31.6170000  70.9020000  78.5400000  34.8300000  69.0230000  79.1220000
  37.0260000  71.6560000  71.2520000  38.0520000  70.5440000  72.5610000
  35.6700000  72.8160000  70.1950000  31.6420000  69.7920000  80.9230000
  33.8570000  69.0510000  80.1120000  35.6310000  68.5360000  79.2740000
  37.6930000  71.6330000  70.5760000  31.8540000  69.1480000  82.0950000
  30.8280000  70.2610000  80.7870000  34.0290000  68.3910000  81.3660000
  33.0710000  68.4340000  82.3240000  31.1870000  69.1720000  82.7710000
  34.8320000  67.9100000  81.5320000  33.2100000  67.9890000  83.1520000
  34.7220000  74.3810000  89.5060000  34.5510000  75.0580000  88.2820000
  33.7460000  74.3860000  90.5100000  35.9660000  73.6520000  89.7380000
  33.7500000  75.5450000  88.1300000  35.5240000  75.0310000  87.2920000
  32.9320000  74.8590000  90.3790000  33.9170000  73.7060000  91.7230000
  36.9500000  73.6470000  88.7190000  36.1360000  72.9720000  90.9510000
  36.7550000  74.3060000  87.5180000  35.3520000  75.6900000  86.0380000
  32.9320000  73.7110000  92.7420000  35.1610000  72.9770000  91.9550000
  37.7640000  73.1790000  88.8640000  36.9500000  72.4990000  91.0820000
  37.7390000  74.2890000  86.4810000  34.5490000  76.1720000  85.8720000
  36.3100000  75.6470000  85.0800000  33.1280000  73.0520000  93.9420000
  32.1180000  74.1790000  92.5970000  35.3310000  72.3000000  93.1790000
  37.5280000  74.9330000  85.3090000  38.5530000  73.8210000  86.6170000
  36.1710000  76.0930000  84.2520000  32.1440000  73.0690000  94.9800000
  34.3580000  72.3270000  94.1690000  36.1320000  71.8130000  93.3310000
  38.1940000  74.9100000  84.6320000  32.3550000  72.4250000  96.1520000
  31.3290000  73.5380000  94.8430000  34.5300000  71.6680000  95.4230000
  33.5730000  71.7110000  96.3810000  31.6880000  72.4480000  96.8280000
  35.3330000  71.1860000  95.5880000  33.7110000  71.2660000  97.2090000
  32.8890000  60.9950000   7.6140000  33.0600000  60.3180000   8.8380000
  33.8650000  60.9890000   6.6100000  31.6450000  61.7240000   7.3820000
  33.8610000  59.8300000   8.9900000  32.0870000  60.3450000   9.8280000
  34.6790000  60.5170000   6.7410000  33.6940000  61.6700000   5.3970000
  30.6610000  61.7290000   8.4010000  31.4740000  62.4040000   6.1690000
  30.8560000  61.0690000   9.6010000  32.2590000  59.6850000  11.0820000
  34.6790000  61.6650000   4.3780000  32.4500000  62.3990000   5.1650000
  29.8460000  62.1960000   8.2560000  30.6610000  62.8760000   6.0380000
  29.8720000  61.0860000  10.6390000  33.0610000  59.2040000  11.2470000
  31.3010000  59.7280000  12.0400000  34.4830000  62.3240000   3.1770000
  35.4930000  61.1970000   4.5230000  32.2800000  63.0750000   3.9410000
  30.0830000  60.4430000  11.8110000  29.0570000  61.5550000  10.5020000
  31.4400000  59.2830000  12.8680000  35.4670000  62.3070000   2.1400000
  33.2520000  63.0480000   2.9510000  31.4790000  63.5630000   3.7890000
  29.4170000  60.4660000  12.4870000  35.2560000  62.9510000   0.9680000
  36.2820000  61.8380000   2.2760000  33.0810000  63.7080000   1.6970000
  34.0380000  63.6650000   0.7390000  35.9230000  62.9270000   0.2920000
  32.2780000  64.1890000   1.5310000  33.9000000  64.1100000  -0.0890000
  33.4530000  68.9520000  33.2790000  33.2820000  69.6290000  32.0540000
  32.4770000  68.9580000  34.2820000  34.6970000  68.2230000  33.5110000
  32.4810000  70.1170000  31.9030000  34.2550000  69.6020000  31.0650000
  31.6630000  69.4300000  34.1520000  32.6480000  68.2770000  35.4960000
  35.6810000  68.2180000  32.4920000  34.8670000  67.5430000  34.7240000
  35.4860000  68.8780000  31.2910000  34.0830000  70.2620000  29.8110000
  31.6630000  68.2820000  36.5150000  33.8920000  67.5480000  35.7270000
  36.4960000  67.7510000  32.6360000  35.6810000  67.0710000  34.8550000
  36.4700000  68.8610000  30.2540000  33.2800000  70.7430000  29.6450000
  35.0410000  70.2190000  28.8520000  31.8590000  67.6230000  37.7150000
  30.8490000  68.7500000  36.3700000  34.0620000  66.8720000  36.9520000
  36.2590000  69.5040000  29.0810000  37.2850000  68.3920000  30.3900000
  34.9020000  70.6640000  28.0240000  30.8750000  67.6400000  38.7520000
  33.0900000  66.8990000  37.9410000  34.8630000  66.3840000  37.1040000
  36.9250000  69.4810000  28.4050000  31.0860000  66.9960000  39.9250000
  30.0600000  68.1090000  38.6160000  33.2610000  66.2390000  39.1950000
  32.3040000  66.2820000  40.1540000  30.4190000  67.0200000  40.6010000
  34.0640000  65.7580000  39.3610000  32.4420000  65.8370000  40.9820000
  33.9540000  72.2290000  47.3360000  33.7840000  72.9060000  46.1110000
  32.9780000  72.2340000  48.3390000  35.1980000  71.5000000  47.5670000
  32.9820000  73.3930000  45.9590000  34.7560000  72.8790000  45.1220000
  32.1650000  72.7070000  48.2080000  33.1490000  71.5540000  49.5520000
  36.1820000  71.4950000  46.5480000  35.3690000  70.8200000  48.7810000
  35.9870000  72.1540000  45.3480000  34.5840000  73.5390000  43.8680000
  32.1640000  71.5590000  50.5710000  34.3930000  70.8250000  49.7840000
  36.9970000  71.0270000  46.6930000  36.1820000  70.3470000  48.9110000
  36.9710000  72.1380000  44.3110000  33.7820000  74.0200000  43.7020000
  35.5420000  73.4960000  42.9090000  32.3600000  70.9000000  51.7720000
  31.3500000  72.0270000  50.4270000  34.5630000  70.1480000  51.0090000
  36.7600000  72.7810000  43.1380000  37.7860000  71.6690000  44.4470000
  35.4040000  73.9410000  42.0810000  31.3760000  70.9170000  52.8090000
  33.5910000  70.1760000  51.9980000  35.3650000  69.6610000  51.1600000
  37.4260000  72.7580000  42.4620000  31.5870000  70.2730000  53.9820000
  30.5610000  71.3860000  52.6730000  33.7630000  69.5160000  53.2520000
  32.8050000  69.5590000  54.2110000  30.9210000  70.2960000  54.6580000
  34.5650000  69.0350000  53.4180000  32.9430000  69.1140000  55.0390000
  34.4550000  75.5060000  61.3920000  34.2850000  76.1830000  60.1680000
  33.4800000  75.5110000  62.3960000  35.6990000  74.7770000  61.6240000
  33.4840000  76.6700000  60.0160000  35.2570000  76.1560000  59.1780000
  32.6660000  75.9840000  62.2650000  33.6500000  74.8310000  63.6090000
  36.6840000  74.7720000  60.6050000  35.8700000  74.0970000  62.8370000
  36.4880000  75.4310000  59.4050000  35.0860000  76.8150000  57.9250000
  32.6660000  74.8360000  64.6280000  34.8940000  74.1020000  63.8410000
  37.4980000  74.3040000  60.7500000  36.6840000  73.6240000  62.9680000
  37.4720000  75.4140000  58.3670000  34.2830000  77.2970000  57.7590000
  36.0430000  76.7720000  56.9660000  32.8610000  74.1770000  65.8290000
  31.8510000  75.3040000  64.4830000  35.0650000  73.4250000  65.0650000
  37.2610000  76.0580000  57.1950000  38.2870000  74.9460000  58.5040000
  35.9050000  77.2170000  56.1380000  31.8770000  74.1940000  66.8660000
  34.0920000  73.4520000  66.0550000  35.8660000  72.9380000  65.2170000
  37.9280000  76.0350000  56.5190000  32.0880000  73.5500000  68.0380000
  31.0620000  74.6620000  66.7300000  34.2640000  72.7930000  67.3090000
  33.3060000  72.8360000  68.2680000  31.4220000  73.5730000  68.7150000
  35.0670000  72.3110000  67.4750000  33.4450000  72.3910000  69.0960000
  33.6880000  73.3540000  19.2220000  33.5170000  74.0310000  17.9980000
  32.7120000  73.3590000  20.2260000  34.9320000  72.6250000  19.4540000
  32.7160000  74.5180000  17.8460000  34.4900000  74.0040000  17.0080000
  31.8980000  73.8320000  20.0950000  32.8820000  72.6790000  21.4390000
  35.9160000  72.6200000  18.4350000  35.1020000  71.9450000  20.6670000
  35.7200000  73.2790000  17.2340000  34.3180000  74.6630000  15.7540000
  31.8980000  72.6840000  22.4580000  34.1270000  71.9500000  21.6710000
  36.7300000  72.1520000  18.5800000  35.9160000  71.4720000  20.7980000
  36.7050000  73.2620000  16.1970000  33.5150000  75.1450000  15.5880000
  35.2760000  74.6200000  14.7950000  32.0940000  72.0250000  23.6580000
  31.0840000  73.1520000  22.3130000  34.2970000  71.2730000  22.8950000
  36.4930000  73.9060000  15.0250000  37.5190000  72.7940000  16.3330000
  35.1370000  75.0660000  13.9670000  31.1090000  72.0420000  24.6960000
  33.3240000  71.3010000  23.8850000  35.0980000  70.7860000  23.0470000
  37.1600000  73.8830000  14.3480000  31.3210000  71.3980000  25.8680000
  30.2950000  72.5110000  24.5590000  33.4960000  70.6410000  25.1380000
  32.5390000  70.6840000  26.0970000  30.6540000  71.4210000  26.5440000
  34.2990000  70.1590000  25.3040000  32.6770000  70.2390000  26.9250000
  34.6280000  75.2270000  35.7270000  34.7980000  74.5500000  36.9520000
  35.6040000  75.2220000  34.7240000  33.3840000  75.9560000  35.4960000
  35.5990000  74.0630000  37.1040000  33.8260000  74.5770000  37.9410000
  36.4170000  74.7490000  34.8550000  35.4330000  75.9020000  33.5110000
  32.3990000  75.9610000  36.5150000  33.2130000  76.6360000  34.2820000
  32.5950000  75.3020000  37.7150000  33.9970000  73.9170000  39.1950000
  36.4170000  75.8970000  32.4920000  34.1890000  76.6310000  33.2790000
  31.5850000  76.4290000  36.3700000  32.3990000  77.1090000  34.1520000
  31.6110000  75.3190000  38.7520000  34.8000000  73.4360000  39.3610000
  33.0400000  73.9610000  40.1540000  36.2220000  76.5560000  31.2910000
  37.2320000  75.4290000  32.6360000  34.0180000  77.3080000  32.0540000
  31.8220000  74.6750000  39.9250000  30.7960000  75.7870000  38.6160000
  33.1780000  73.5150000  40.9820000  37.2060000  76.5390000  30.2540000
  34.9910000  77.2800000  31.0650000  33.2170000  77.7950000  31.9030000
  31.1550000  74.6980000  40.6010000  36.9950000  77.1830000  29.0810000
  38.0210000  76.0700000  30.3900000  34.8190000  77.9400000  29.8110000
  35.7770000  77.8970000  28.8520000  37.6610000  77.1600000  28.4050000
  34.0170000  78.4210000  29.6450000  35.6380000  78.3420000  28.0240000
  34.6900000  79.9080000  47.3360000  34.5200000  80.5850000  46.1110000
  33.7140000  79.9130000  48.3390000  35.9340000  79.1790000  47.5670000
  33.7190000  81.0720000  45.9590000  35.4920000  80.5570000  45.1220000
  32.9010000  80.3850000  48.2080000  33.8850000  79.2330000  49.5520000
  36.9190000  79.1740000  46.5480000  36.1050000  78.4990000  48.7810000
  36.7230000  79.8330000  45.3480000  35.3200000  81.2170000  43.8680000
  32.9010000  79.2380000  50.5710000  35.1290000  78.5040000  49.7840000
  37.7330000  78.7060000  46.6930000  36.9180000  78.0260000  48.9110000
  37.7070000  79.8160000  44.3110000  34.5180000  81.6980000  43.7020000
  36.2780000  81.1740000  42.9090000  33.0960000  78.5780000  51.7720000
  32.0860000  79.7050000  50.4270000  35.3000000  77.8270000  51.0090000
  37.4960000  80.4600000  43.1380000  38.5220000  79.3470000  44.4470000
  36.1400000  81.6190000  42.0810000  32.1120000  78.5950000  52.8090000
  34.3270000  77.8540000  51.9980000  36.1010000  77.3390000  51.1600000
  38.1630000  80.4360000  42.4620000  32.3230000  77.9520000  53.9820000
  31.2970000  79.0640000  52.6730000  34.4990000  77.1940000  53.2520000
  33.5410000  77.2370000  54.2110000  31.6570000  77.9750000  54.6580000
  35.3010000  76.7130000  53.4180000  33.6790000  76.7920000  55.0390000
  33.6250000  68.6730000   7.6140000  33.7960000  67.9960000   8.8380000
  34.6010000  68.6680000   6.6100000  32.3810000  69.4020000   7.3820000
  34.5970000  67.5090000   8.9900000  32.8230000  68.0240000   9.8280000
  35.4150000  68.1960000   6.7410000  34.4300000  69.3480000   5.3970000
  31.3970000  69.4070000   8.4010000  32.2110000  70.0820000   6.1690000
  31.5920000  68.7480000   9.6010000  32.9950000  67.3640000  11.0820000
  35.4150000  69.3430000   4.3780000  33.1860000  70.0770000   5.1650000
  30.5830000  69.8750000   8.2560000  31.3970000  70.5550000   6.0380000
  30.6080000  68.7650000  10.6390000  33.7980000  66.8830000  11.2470000
  32.0370000  67.4070000  12.0400000  35.2190000  70.0020000   3.1770000
  36.2290000  68.8760000   4.5230000  33.0160000  70.7540000   3.9410000
  30.8190000  68.1210000  11.8110000  29.7940000  69.2340000  10.5020000
  32.1760000  66.9620000  12.8680000  36.2030000  69.9860000   2.1400000
  33.9890000  70.7270000   2.9510000  32.2150000  71.2420000   3.7890000
  30.1530000  68.1450000  12.4870000  35.9920000  70.6290000   0.9680000
  37.0180000  69.5170000   2.2760000  33.8170000  71.3870000   1.6970000
  34.7740000  71.3440000   0.7390000  36.6590000  70.6060000   0.2920000
  33.0140000  71.8680000   1.5310000  34.6360000  71.7890000  -0.0890000
  35.1910000  83.1850000  61.3920000  35.0210000  83.8610000  60.1680000
  34.2160000  83.1900000  62.3960000  36.4360000  82.4550000  61.6240000
  34.2200000  84.3490000  60.0160000  35.9940000  83.8340000  59.1780000
  33.4020000  83.6620000  62.2650000  34.3860000  82.5100000  63.6090000
  37.4200000  82.4510000  60.6050000  36.6060000  81.7750000  62.8370000
  37.2240000  83.1100000  59.4050000  35.8220000  84.4940000  57.9250000
  33.4020000  82.5150000  64.6280000  35.6300000  81.7810000  63.8410000
  38.2340000  81.9830000  60.7500000  37.4200000  81.3030000  62.9680000
  38.2080000  83.0930000  58.3670000  35.0190000  84.9750000  57.7590000
  36.7790000  84.4510000  56.9660000  33.5980000  81.8550000  65.8290000
  32.5880000  82.9820000  64.4830000  35.8010000  81.1040000  65.0650000
  37.9970000  83.7370000  57.1950000  39.0230000  82.6240000  58.5040000
  36.6410000  84.8960000  56.1380000  32.6130000  81.8720000  66.8660000
  34.8280000  81.1310000  66.0550000  36.6020000  80.6160000  65.2170000
  38.6640000  83.7130000  56.5190000  32.8240000  81.2290000  68.0380000
  31.7990000  82.3410000  66.7300000  35.0000000  80.4710000  67.3090000
  34.0420000  80.5140000  68.2680000  32.1580000  81.2520000  68.7150000
  35.8030000  79.9900000  67.4750000  34.1810000  80.0690000  69.0960000
  35.6930000  86.4610000  75.4490000  35.5220000  87.1380000  74.2250000
  34.7170000  86.4670000  76.4530000  36.9370000  85.7320000  75.6810000
  34.7210000  87.6260000  74.0730000  36.4950000  87.1110000  73.2350000
  33.9030000  86.9390000  76.3220000  34.8870000  85.7860000  77.6660000
  37.9210000  85.7270000  74.6620000  37.1070000  85.0520000  76.8940000
  37.7260000  86.3870000  73.4620000  36.3230000  87.7710000  71.9810000
  33.9030000  85.7910000  78.6850000  36.1320000  85.0570000  77.8980000
  38.7350000  85.2600000  74.8070000  37.9210000  84.5800000  77.0250000
  38.7100000  86.3700000  72.4240000  35.5200000  88.2520000  71.8150000
  37.2810000  87.7280000  71.0230000  34.0990000  85.1320000  79.8860000
  33.0890000  86.2590000  78.5400000  36.3020000  84.3810000  79.1220000
  38.4990000  87.0130000  71.2520000  39.5240000  85.9010000  72.5610000
  37.1420000  88.1730000  70.1950000  33.1150000  85.1490000  80.9230000
  35.3290000  84.4080000  80.1120000  37.1030000  83.8930000  79.2740000
  39.1650000  86.9900000  70.5760000  33.3260000  84.5050000  82.0950000
  32.3000000  85.6180000  80.7870000  35.5010000  83.7480000  81.3660000
  34.5440000  83.7910000  82.3240000  32.6590000  84.5290000  82.7710000
  36.3040000  83.2670000  81.5320000  34.6820000  83.3460000  83.1520000
  36.6330000  88.3340000  91.9550000  36.8030000  87.6570000  93.1790000
  37.6090000  88.3290000  90.9510000  35.3890000  89.0630000  91.7230000
  37.6040000  87.1700000  93.3310000  35.8310000  87.6850000  94.1690000
  38.4220000  87.8570000  91.0820000  37.4380000  89.0090000  89.7380000
  34.4040000  89.0680000  92.7420000  35.2180000  89.7430000  90.5100000
  34.6000000  88.4090000  93.9420000  36.0030000  87.0250000  95.4230000
  38.4220000  89.0040000  88.7190000  36.1940000  89.7380000  89.5060000
  33.5900000  89.5360000  92.5970000  34.4050000  90.2160000  90.3790000
  33.6160000  88.4260000  94.9800000  36.8050000  86.5440000  95.5880000
  35.0450000  87.0680000  96.3810000  38.2270000  89.6630000  87.5180000
  39.2370000  88.5370000  88.8640000  36.0240000  90.4150000  88.2820000
  33.8270000  87.7820000  96.1520000  32.8010000  88.8950000  94.8430000
  35.1830000  86.6230000  97.2090000  39.2110000  89.6470000  86.4810000
  36.9960000  90.3880000  87.2920000  35.2220000  90.9030000  88.1300000
  33.1600000  87.8060000  96.8280000  39.0000000  90.2900000  85.3090000
  40.0260000  89.1780000  86.6170000  36.8240000  91.0480000  86.0380000
  37.7820000  91.0050000  85.0800000  39.6660000  90.2670000  84.6320000
  36.0220000  91.5290000  85.8720000  37.6440000  91.4500000  84.2520000
  34.8630000  79.6290000  21.6710000  35.0330000  78.9520000  22.8950000
  35.8380000  79.6230000  20.6670000  33.6190000  80.3580000  21.4390000
  35.8340000  78.4640000  23.0470000  34.0610000  78.9790000  23.8850000
  36.6520000  79.1510000  20.7980000  35.6680000  80.3040000  19.4540000
  32.6340000  80.3630000  22.4580000  33.4480000  81.0380000  20.2260000
  32.8300000  79.7030000  23.6580000  34.2320000  78.3190000  25.1380000
  36.6520000  80.2990000  18.4350000  34.4240000  81.0330000  19.2220000
  31.8200000  80.8300000  22.3130000  32.6340000  81.5100000  20.0950000
  31.8460000  79.7200000  24.6960000  35.0350000  77.8380000  25.3040000
  33.2750000  78.3620000  26.0970000  36.4570000  80.9580000  17.2340000
  37.4670000  79.8310000  18.5800000  34.2530000  81.7090000  17.9980000
  32.0570000  79.0770000  25.8680000  31.0310000  80.1890000  24.5590000
  33.4130000  77.9170000  26.9250000  37.4410000  80.9410000  16.1970000
  35.2260000  81.6820000  17.0080000  33.4520000  82.1970000  17.8460000
  31.3900000  79.1000000  26.5440000  37.2300000  81.5850000  15.0250000
  38.2560000  80.4720000  16.3330000  35.0540000  82.3420000  15.7540000
  36.0120000  82.2990000  14.7950000  37.8960000  81.5610000  14.3480000
  34.2510000  82.8230000  15.5880000  35.8730000  82.7440000  13.9670000
  35.8650000  86.1820000  49.7840000  36.0360000  85.5060000  51.0090000
  36.8410000  86.1770000  48.7810000  34.6210000  86.9110000  49.5520000
  36.8370000  85.0180000  51.1600000  35.0630000  85.5330000  51.9980000
  37.6550000  85.7050000  48.9110000  36.6700000  86.8570000  47.5670000
  33.6370000  86.9160000  50.5710000  34.4510000  87.5920000  48.3390000
  33.8320000  86.2570000  51.7720000  35.2350000  84.8730000  53.2520000
  37.6550000  86.8520000  46.5480000  35.4260000  87.5860000  47.3360000
  32.8220000  87.3840000  50.4270000  33.6370000  88.0640000  48.2080000
  32.8480000  86.2740000  52.8090000  36.0370000  84.3920000  53.4180000
  34.2770000  84.9160000  54.2110000  37.4590000  87.5120000  45.3480000
  38.4690000  86.3850000  46.6930000  35.2560000  88.2630000  46.1110000
  33.0590000  85.6300000  53.9820000  32.0330000  86.7430000  52.6730000
  34.4160000  84.4710000  55.0390000  38.4430000  87.4950000  44.3110000
  36.2280000  88.2360000  45.1220000  34.4550000  88.7510000  45.9590000
  32.3930000  85.6540000  54.6580000  38.2320000  88.1380000  43.1380000
  39.2580000  87.0260000  44.4470000  36.0570000  88.8960000  43.8680000
  37.0140000  88.8530000  42.9090000  38.8990000  88.1150000  42.4620000
  35.2540000  89.3770000  43.7020000  36.8760000  89.2980000  42.0810000
  36.3660000  89.4590000  63.8410000  36.5370000  88.7820000  65.0650000
  37.3420000  89.4540000  62.8370000  35.1220000  90.1880000  63.6090000
  37.3380000  88.2950000  65.2170000  35.5640000  88.8100000  66.0550000
  38.1560000  88.9810000  62.9680000  37.1720000  90.1340000  61.6240000
  34.1380000  90.1930000  64.6280000  34.9520000  90.8680000  62.3960000
  34.3340000  89.5340000  65.8290000  35.7360000  88.1500000  67.3090000
  38.1560000  90.1290000  60.6050000  35.9280000  90.8630000  61.3920000
  33.3240000  90.6610000  64.4830000  34.1380000  91.3410000  62.2650000
  33.3490000  89.5510000  66.8660000  36.5390000  87.6690000  67.4750000
  34.7780000  88.1930000  68.2680000  37.9600000  90.7880000  59.4050000
  38.9700000  89.6620000  60.7500000  35.7570000  91.5400000  60.1680000
  33.5610000  88.9070000  68.0380000  32.5350000  90.0200000  66.7300000
  34.9170000  87.7480000  69.0960000  38.9450000  90.7720000  58.3670000
  36.7300000  91.5130000  59.1780000  34.9560000  92.0270000  60.0160000
  32.8940000  88.9300000  68.7150000  38.7330000  91.4150000  57.1950000
  39.7590000  90.3030000  58.5040000  36.5580000  92.1730000  57.9250000
  37.5160000  92.1300000  56.9660000  39.4000000  91.3920000  56.5190000
  35.7550000  92.6540000  57.7590000  37.3770000  92.5750000  56.1380000
  36.4290000  94.1400000  75.4490000  36.2580000  94.8170000  74.2250000
  35.4530000  94.1450000  76.4530000  37.6730000  93.4110000  75.6810000
  35.4570000  95.3040000  74.0730000  37.2310000  94.7900000  73.2350000
  34.6390000  94.6180000  76.3220000  35.6240000  93.4650000  77.6660000
  38.6570000  93.4060000  74.6620000  37.8430000  92.7310000  76.8940000
  38.4620000  94.0650000  73.4620000  37.0590000  95.4490000  71.9810000
  34.6390000  93.4700000  78.6850000  36.8680000  92.7360000  77.8980000
  39.4720000  92.9380000  74.8070000  38.6570000  92.2580000  77.0250000
  39.4460000  94.0480000  72.4240000  36.2570000  95.9310000  71.8150000
  38.0170000  95.4060000  71.0230000  34.8350000  92.8110000  79.8860000
  33.8250000  93.9380000  78.5400000  37.0380000  92.0590000  79.1220000
  39.2350000  94.6920000  71.2520000  40.2610000  93.5800000  72.5610000
  37.8780000  95.8510000  70.1950000  33.8510000  92.8280000  80.9230000
  36.0660000  92.0860000  80.1120000  37.8390000  91.5720000  79.2740000
  39.9010000  94.6690000  70.5760000  34.0620000  92.1840000  82.0950000
  33.0360000  93.2960000  80.7870000  36.2370000  91.4270000  81.3660000
  35.2800000  91.4700000  82.3240000  33.3950000  92.2070000  82.7710000
  37.0400000  90.9450000  81.5320000  35.4180000  91.0250000  83.1520000
  35.3640000  82.9050000  35.7270000  35.5340000  82.2290000  36.9520000
  36.3400000  82.9000000  34.7240000  34.1200000  83.6350000  35.4960000
  36.3360000  81.7410000  37.1040000  34.5620000  82.2560000  37.9410000
  37.1530000  82.4280000  34.8550000  36.1690000  83.5800000  33.5110000
  33.1350000  83.6400000  36.5150000  33.9490000  84.3150000  34.2820000
  33.3310000  82.9800000  37.7150000  34.7340000  81.5960000  39.1950000
  37.1530000  83.5750000  32.4920000  34.9250000  84.3100000  33.2790000
  32.3210000  84.1070000  36.3700000  33.1360000  84.7870000  34.1520000
  32.3470000  82.9970000  38.7520000  35.5360000  81.1150000  39.3610000
  33.7760000  81.6390000  40.1540000  36.9580000  84.2350000  31.2910000
  37.9680000  83.1080000  32.6360000  34.7550000  84.9860000  32.0540000
  32.5580000  82.3540000  39.9250000  31.5320000  83.4660000  38.6160000
  33.9140000  81.1940000  40.9820000  37.9420000  84.2180000  30.2540000
  35.7270000  84.9590000  31.0650000  33.9530000  85.4740000  31.9030000
  31.8920000  82.3770000  40.6010000  37.7310000  84.8610000  29.0810000
  38.7570000  83.7490000  30.3900000  35.5550000  85.6190000  29.8110000
  36.5130000  85.5760000  28.8520000  38.3970000  84.8380000  28.4050000
  34.7530000  86.1000000  29.6450000  36.3750000  86.0210000  28.0240000
  33.9220000  77.7560000   5.1650000  33.7520000  78.4330000   3.9410000
  32.9470000  77.7610000   6.1690000  35.1670000  77.0270000   5.3970000
  32.9510000  78.9200000   3.7890000  34.7250000  78.4050000   2.9510000
  32.1330000  78.2340000   6.0380000  33.1170000  77.0810000   7.3820000
  36.1510000  77.0220000   4.3780000  35.3370000  76.3470000   6.6100000
  35.9550000  77.6810000   3.1770000  34.5530000  79.0650000   1.6970000
  32.1330000  77.0860000   8.4010000  34.3610000  76.3520000   7.6140000
  36.9650000  76.5540000   4.5230000  36.1510000  75.8740000   6.7410000
  36.9400000  77.6640000   2.1400000  33.7500000  79.5460000   1.5310000
  35.5100000  79.0220000   0.7390000  32.3290000  76.4270000   9.6010000
  31.3190000  77.5540000   8.2560000  34.5320000  75.6750000   8.8380000
  36.7280000  78.3080000   0.9680000  37.7540000  77.1950000   2.2760000
  35.3720000  79.4670000  -0.0890000  31.3440000  76.4430000  10.6390000
  33.5590000  75.7020000   9.8280000  35.3330000  75.1880000   8.9900000
  37.3950000  78.2850000   0.2920000  31.5560000  75.8000000  11.8110000
  30.5300000  76.9120000  10.5020000  33.7310000  75.0420000  11.0820000
  32.7730000  75.0850000  12.0400000  30.8890000  75.8230000  12.4870000
  34.5340000  74.5610000  11.2470000  32.9120000  74.6400000  12.8680000
  36.9300000  97.4170000  89.5060000  36.7600000  98.0940000  88.2820000
  35.9540000  97.4220000  90.5100000  38.1740000  96.6880000  89.7380000
  35.9580000  98.5810000  88.1300000  37.7320000  98.0660000  87.2920000
  35.1410000  97.8950000  90.3790000  36.1250000  96.7420000  91.7230000
  39.1590000  96.6830000  88.7190000  38.3450000  96.0080000  90.9510000
  38.9630000  97.3420000  87.5180000  37.5600000  98.7260000  86.0380000
  35.1410000  96.7470000  92.7420000  37.3690000  96.0130000  91.9550000
  39.9730000  96.2150000  88.8640000  39.1580000  95.5350000  91.0820000
  39.9470000  97.3250000  86.4810000  36.7580000  99.2070000  85.8720000
  38.5180000  98.6830000  85.0800000  35.3360000  96.0880000  93.9420000
  34.3260000  97.2140000  92.5970000  37.5390000  95.3360000  93.1790000
  39.7360000  97.9690000  85.3090000  40.7620000  96.8560000  86.6170000
  38.3800000  99.1280000  84.2520000  34.3520000  96.1040000  94.9800000
  36.5670000  95.3630000  94.1690000  38.3410000  94.8490000  93.3310000
  40.4020000  97.9460000  84.6320000  34.5630000  95.4610000  96.1520000
  33.5370000  96.5730000  94.8430000  36.7390000  94.7030000  95.4230000
  35.7810000  94.7460000  96.3810000  33.8970000  95.4840000  96.8280000
  37.5410000  94.2220000  95.5880000  35.9190000  94.3010000  97.2090000
  34.6590000  85.4340000   5.1650000  34.4880000  86.1110000   3.9410000
  33.6830000  85.4400000   6.1690000  35.9030000  84.7050000   5.3970000
  33.6870000  86.5990000   3.7890000  35.4610000  86.0840000   2.9510000
  32.8690000  85.9120000   6.0380000  33.8530000  84.7600000   7.3820000
  36.8870000  84.7000000   4.3780000  36.0730000  84.0250000   6.6100000
  36.6910000  85.3600000   3.1770000  35.2890000  86.7440000   1.6970000
  32.8690000  84.7640000   8.4010000  35.0980000  84.0300000   7.6140000
  37.7010000  84.2330000   4.5230000  36.8870000  83.5530000   6.7410000
  37.6760000  85.3430000   2.1400000  34.4860000  87.2250000   1.5310000
  36.2470000  86.7010000   0.7390000  33.0650000  84.1050000   9.6010000
  32.0550000  85.2320000   8.2560000  35.2680000  83.3540000   8.8380000
  37.4640000  85.9860000   0.9680000  38.4900000  84.8740000   2.2760000
  36.1080000  87.1460000  -0.0890000  32.0800000  84.1220000  10.6390000
  34.2950000  83.3810000   9.8280000  36.0690000  82.8660000   8.9900000
  38.1310000  85.9630000   0.2920000  32.2920000  83.4780000  11.8110000
  31.2660000  84.5910000  10.5020000  34.4670000  82.7210000  11.0820000
  33.5100000  82.7640000  12.0400000  31.6250000  83.5020000  12.4870000
  35.2700000  82.2400000  11.2470000  33.6480000  82.3190000  12.8680000
  38.1050000 103.6910000  91.9550000  38.2760000 103.0150000  93.1790000
  39.0810000 103.6860000  90.9510000  36.8610000 104.4210000  91.7230000
  39.0770000 102.5270000  93.3310000  37.3030000 103.0420000  94.1690000
  39.8950000 103.2140000  91.0820000  38.9100000 104.3660000  89.7380000
  35.8770000 104.4250000  92.7420000  36.6900000 105.1010000  90.5100000
  36.0720000 103.7660000  93.9420000  37.4750000 102.3820000  95.4230000
  39.8950000 104.3610000  88.7190000  37.6660000 105.0950000  89.5060000
  35.0620000 104.8930000  92.5970000  35.8770000 105.5730000  90.3790000
  35.0880000 103.7830000  94.9800000  38.2770000 101.9010000  95.5880000
  36.5170000 102.4250000  96.3810000  39.6990000 105.0210000  87.5180000
  40.7090000 103.8940000  88.8640000  37.4960000 105.7720000  88.2820000
  35.2990000 103.1390000  96.1520000  34.2730000 104.2520000  94.8430000
  36.6560000 101.9800000  97.2090000  40.6830000 105.0040000  86.4810000
  38.4680000 105.7450000  87.2920000  36.6950000 106.2600000  88.1300000
  34.6330000 103.1630000  96.8280000  40.4720000 105.6470000  85.3090000
  41.4980000 104.5350000  86.6170000  38.2970000 106.4050000  86.0380000
  39.2540000 106.3620000  85.0800000  41.1390000 105.6240000  84.6320000
  37.4940000 106.8860000  85.8720000  39.1160000 106.8070000  84.2520000
  35.5990000  87.3070000  21.6710000  35.7690000  86.6300000  22.8950000
  36.5750000  87.3020000  20.6670000  34.3550000  88.0360000  21.4390000
  36.5700000  86.1430000  23.0470000  34.7970000  86.6580000  23.8850000
  37.3880000  86.8300000  20.7980000  36.4040000  87.9820000  19.4540000
  33.3700000  88.0410000  22.4580000  34.1840000  88.7160000  20.2260000
  33.5660000  87.3820000  23.6580000  34.9680000  85.9980000  25.1380000
  37.3880000  87.9770000  18.4350000  35.1600000  88.7110000  19.2220000
  32.5560000  88.5090000  22.3130000  33.3700000  89.1890000  20.0950000
  32.5820000  87.3990000  24.6960000  35.7710000  85.5170000  25.3040000
  34.0110000  86.0410000  26.0970000  37.1930000  88.6370000  17.2340000
  38.2030000  87.5100000  18.5800000  34.9890000  89.3880000  17.9980000
  32.7930000  86.7550000  25.8680000  31.7670000  87.8680000  24.5590000
  34.1490000  85.5960000  26.9250000  38.1770000  88.6200000  16.1970000
  35.9620000  89.3610000  17.0080000  34.1880000  89.8760000  17.8460000
  32.1260000  86.7790000  26.5440000  37.9660000  89.2630000  15.0250000
  38.9920000  88.1510000  16.3330000  35.7900000  90.0210000  15.7540000
  36.7480000  89.9780000  14.7950000  38.6320000  89.2400000  14.3480000
  34.9880000  90.5020000  15.5880000  36.6090000  90.4230000  13.9670000
  37.6040000 100.4150000  77.8980000  37.7740000  99.7380000  79.1220000
  38.5800000 100.4090000  76.8940000  36.3600000 101.1440000  77.6660000
  38.5750000  99.2500000  79.2740000  36.8020000  99.7650000  80.1120000
  39.3930000  99.9370000  77.0250000  38.4090000 101.0900000  75.6810000
  35.3750000 101.1490000  78.6850000  36.1890000 101.8240000  76.4530000
  35.5710000 100.4890000  79.8860000  36.9740000  99.1050000  81.3660000
  39.3930000 101.0850000  74.6620000  37.1650000 101.8190000  75.4490000
  34.5610000 101.6160000  78.5400000  35.3750000 102.2960000  76.3220000
  34.5870000 100.5060000  80.9230000  37.7760000  98.6240000  81.5320000
  36.0160000  99.1480000  82.3240000  39.1980000 101.7440000  73.4620000
  40.2080000 100.6170000  74.8070000  36.9940000 102.4950000  74.2250000
  34.7980000  99.8630000  82.0950000  33.7720000 100.9750000  80.7870000
  36.1540000  98.7030000  83.1520000  40.1820000 101.7270000  72.4240000
  37.9670000 102.4680000  73.2350000  36.1930000 102.9830000  74.0730000
  34.1310000  99.8860000  82.7710000  39.9710000 102.3710000  71.2520000
  40.9970000 101.2580000  72.5610000  37.7950000 103.1280000  71.9810000
  38.7530000 103.0850000  71.0230000  40.6370000 102.3470000  70.5760000
  36.9930000 103.6090000  71.8150000  38.6140000 103.5300000  70.1950000
  35.6610000  91.9880000  33.2790000  35.4910000  92.6650000  32.0540000
  34.6850000  91.9930000  34.2820000  36.9050000  91.2590000  33.5110000
  34.6900000  93.1520000  31.9030000  36.4630000  92.6380000  31.0650000
  33.8720000  92.4660000  34.1520000  34.8560000  91.3130000  35.4960000
  37.8900000  91.2540000  32.4920000  37.0760000  90.5790000  34.7240000
  37.6940000  91.9130000  31.2910000  36.2910000  93.2980000  29.8110000
  33.8720000  91.3180000  36.5150000  36.1000000  90.5840000  35.7270000
  38.7040000  90.7860000  32.6360000  37.8890000  90.1060000  34.8550000
  38.6780000  91.8960000  30.2540000  35.4890000  93.7790000  29.6450000
  37.2490000  93.2540000  28.8520000  34.0670000  90.6590000  37.7150000
  33.0570000  91.7860000  36.3700000  36.2700000  89.9070000  36.9520000
  38.4670000  92.5400000  29.0810000  39.4930000  91.4280000  30.3900000
  37.1110000  93.7000000  28.0240000  33.0830000  90.6760000  38.7520000
  35.2980000  89.9350000  37.9410000  37.0720000  89.4200000  37.1040000
  39.1330000  92.5170000  28.4050000  33.2940000  90.0320000  39.9250000
  32.2680000  91.1450000  38.6160000  35.4700000  89.2750000  39.1950000
  34.5120000  89.3180000  40.1540000  32.6280000  90.0550000  40.6010000
  36.2720000  88.7940000  39.3610000  34.6500000  88.8730000  40.9820000
  36.1620000  95.2650000  47.3360000  35.9920000  95.9420000  46.1110000
  35.1870000  95.2700000  48.3390000  37.4060000  94.5360000  47.5670000
  35.1910000  96.4290000  45.9590000  36.9650000  95.9140000  45.1220000
  34.3730000  95.7430000  48.2080000  35.3570000  94.5900000  49.5520000
  38.3910000  94.5310000  46.5480000  37.5770000  93.8560000  48.7810000
  38.1950000  95.1900000  45.3480000  36.7930000  96.5740000  43.8680000
  34.3730000  94.5950000  50.5710000  36.6010000  93.8610000  49.7840000
  39.2050000  94.0630000  46.6930000  38.3910000  93.3830000  48.9110000
  39.1790000  95.1730000  44.3110000  35.9900000  97.0560000  43.7020000
  37.7500000  96.5310000  42.9090000  34.5680000  93.9360000  51.7720000
  33.5590000  95.0630000  50.4270000  36.7720000  93.1840000  51.0090000
  38.9680000  95.8170000  43.1380000  39.9940000  94.7040000  44.4470000
  37.6120000  96.9760000  42.0810000  33.5840000  93.9530000  52.8090000
  35.7990000  93.2110000  51.9980000  37.5730000  92.6970000  51.1600000
  39.6350000  95.7940000  42.4620000  33.7950000  93.3090000  53.9820000
  32.7700000  94.4210000  52.6730000  35.9710000  92.5520000  53.2520000
  35.0130000  92.5950000  54.2110000  33.1290000  93.3320000  54.6580000
  36.7740000  92.0700000  53.4180000  35.1520000  92.1490000  55.0390000
  37.1030000  97.1380000  63.8410000  37.2730000  96.4610000  65.0650000
  38.0780000  97.1330000  62.8370000  35.8580000  97.8670000  63.6090000
  38.0740000  95.9730000  65.2170000  36.3000000  96.4880000  66.0550000
  38.8920000  96.6600000  62.9680000  37.9080000  97.8130000  61.6240000
  34.8740000  97.8720000  64.6280000  35.6880000  98.5470000  62.3960000
  35.0700000  97.2130000  65.8290000  36.4720000  95.8280000  67.3090000
  38.8920000  97.8080000  60.6050000  36.6640000  98.5420000  61.3920000
  34.0600000  98.3390000  64.4830000  34.8740000  99.0190000  62.2650000
  34.0860000  97.2290000  66.8660000  37.2750000  95.3470000  67.4750000
  35.5150000  95.8710000  68.2680000  38.6960000  98.4670000  59.4050000
  39.7060000  97.3400000  60.7500000  36.4930000  99.2190000  60.1680000
  34.2970000  96.5860000  68.0380000  33.2710000  97.6980000  66.7300000
  35.6530000  95.4260000  69.0960000  39.6810000  98.4500000  58.3670000
  37.4660000  99.1910000  59.1780000  35.6920000  99.7060000  60.0160000
  33.6300000  96.6090000  68.7150000  39.4700000  99.0940000  57.1950000
  40.4950000  97.9810000  58.5040000  37.2940000  99.8510000  57.9250000
  38.2520000  99.8080000  56.9660000  40.1360000  99.0700000  56.5190000
  36.4910000 100.3320000  57.7590000  38.1130000 100.2530000  56.1380000
  31.0020000   7.2980000  21.8580000  31.1590000   7.1790000  23.2490000
  31.9830000   7.8560000  21.0270000  29.7710000   6.8100000  21.2530000
  31.9600000   7.4970000  23.6500000  30.1830000   6.6140000  24.0590000
  32.7970000   8.1730000  21.3990000  31.8040000   7.9580000  19.6390000
  28.7800000   6.2390000  22.0850000  29.5920000   6.9120000  19.8660000
  28.9580000   6.1380000  23.4600000  30.3470000   6.4880000  25.4810000
  32.7960000   8.5290000  18.8070000  30.5730000   7.4700000  19.0350000
  27.9740000   5.9180000  21.6960000  28.7790000   6.5950000  19.4930000
  27.9620000   5.5520000  24.3230000  31.1460000   6.7950000  25.8930000
  29.3680000   5.9370000  26.2430000  32.6170000   8.6300000  17.4320000
  33.6010000   8.8500000  19.1970000  30.4170000   7.5890000  17.6430000
  28.1600000   5.4550000  25.6590000  27.1520000   5.2280000  23.9480000
  29.4890000   5.8720000  27.1840000  33.6130000   9.2160000  16.5690000
  31.3930000   8.1540000  16.8340000  29.6150000   7.2710000  17.2430000
  27.4920000   5.0630000  26.2080000  33.4150000   9.3130000  15.2340000
  34.4230000   9.5400000  16.9450000  31.2290000   8.2800000  15.4110000
  32.2080000   8.8310000  14.6490000  34.0840000   9.7050000  14.6840000
  30.4290000   7.9730000  14.9990000  32.0870000   8.8960000  13.7090000
  30.0720000   4.1930000   4.9780000  29.9160000   4.3120000   3.5870000
  29.0910000   3.6360000   5.8090000  31.3030000   4.6810000   5.5830000
  29.1140000   3.9950000   3.1860000  30.8910000   4.8780000   2.7770000
  28.2770000   3.3180000   5.4360000  29.2700000   3.5340000   7.1960000
  32.2950000   5.2520000   4.7500000  31.4820000   4.5790000   6.9700000
  32.1160000   5.3530000   3.3760000  30.7280000   5.0030000   1.3540000
  28.2780000   2.9620000   8.0280000  30.5010000   4.0220000   7.8010000
  33.1000000   5.5730000   5.1400000  32.2960000   4.8960000   7.3430000
  33.1120000   5.9390000   2.5130000  29.9280000   4.6960000   0.9420000
  31.7070000   5.5540000   0.5920000  28.4570000   2.8610000   9.4030000
  27.4730000   2.6410000   7.6390000  30.6570000   3.9020000   9.1920000
  32.9140000   6.0370000   1.1770000  33.9220000   6.2630000   2.8880000
  31.5850000   5.6190000  -0.3480000  27.4610000   2.2750000  10.2660000
  29.6810000   3.3370000  10.0020000  31.4590000   4.2200000   9.5930000
  33.5820000   6.4280000   0.6280000  27.6590000   2.1780000  11.6020000
  26.6510000   1.9510000   9.8910000  29.8450000   3.2120000  11.4250000
  28.8660000   2.6600000  12.1860000  26.9900000   1.7860000  12.1510000
  30.6450000   3.5180000  11.8360000  28.9870000   2.5960000  13.1270000
  32.0770000  17.3000000  61.2050000  31.9210000  17.4200000  59.8140000
  31.0960000  16.7430000  62.0360000  33.3080000  17.7880000  61.8100000
  31.1190000  17.1020000  59.4130000  32.8960000  17.9850000  59.0040000
  30.2820000  16.4260000  61.6640000  31.2750000  16.6410000  63.4240000
  34.3000000  18.3600000  60.9780000  33.4870000  17.6860000  63.1970000
  34.1210000  18.4610000  59.6030000  32.7330000  18.1100000  57.5820000
  30.2830000  16.0690000  64.2560000  32.5060000  17.1290000  64.0280000
  35.1050000  18.6810000  61.3670000  34.3010000  18.0030000  63.5700000
  35.1170000  19.0470000  58.7400000  31.9330000  17.8040000  57.1700000
  33.7120000  18.6610000  56.8200000  30.4620000  15.9680000  65.6300000
  29.4780000  15.7480000  63.8660000  32.6620000  17.0090000  65.4200000
  34.9190000  19.1440000  57.4040000  35.9270000  19.3710000  59.1150000
  33.5910000  18.7260000  55.8790000  29.4660000  15.3820000  66.4940000
  31.6870000  16.4440000  66.2290000  33.4640000  17.3270000  65.8200000
  35.5880000  19.5360000  56.8550000  29.6640000  15.2850000  67.8290000
  28.6560000  15.0580000  66.1180000  31.8500000  16.3190000  67.6520000
  30.8710000  15.7680000  68.4140000  28.9960000  14.8930000  68.3790000
  32.6500000  16.6250000  68.0640000  30.9930000  15.7030000  69.3540000
  31.3090000  15.1480000  19.0350000  31.1530000  15.2680000  17.6430000
  30.3280000  14.5910000  19.8660000  32.5400000  15.6360000  19.6390000
  30.3520000  14.9500000  17.2430000  32.1290000  15.8330000  16.8340000
  29.5150000  14.2740000  19.4930000  30.5080000  14.4890000  21.2530000
  33.5320000  16.2080000  18.8070000  32.7200000  15.5340000  21.0270000
  33.3530000  16.3090000  17.4320000  31.9650000  15.9580000  15.4110000
  29.5160000  13.9170000  22.0850000  31.7380000  14.9770000  21.8580000
  34.3370000  16.5290000  19.1970000  33.5330000  15.8510000  21.3990000
  34.3490000  16.8950000  16.5690000  31.1650000  15.6520000  14.9990000
  32.9440000  16.5090000  14.6490000  29.6940000  13.8160000  23.4600000
  28.7100000  13.5960000  21.6960000  31.8950000  14.8580000  23.2490000
  34.1510000  16.9920000  15.2340000  35.1590000  17.2190000  16.9450000
  32.8230000  16.5740000  13.7090000  28.6980000  13.2300000  24.3230000
  30.9190000  14.2920000  24.0590000  32.6960000  15.1750000  23.6500000
  34.8200000  17.3840000  14.6840000  28.8960000  13.1330000  25.6590000
  27.8890000  12.9060000  23.9480000  31.0830000  14.1670000  25.4810000
  30.1040000  13.6160000  26.2430000  28.2280000  12.7420000  26.2080000
  31.8830000  14.4730000  25.8930000  30.2250000  13.5510000  27.1840000
  30.8080000  11.8710000   4.9780000  30.6520000  11.9910000   3.5870000
  29.8270000  11.3140000   5.8090000  32.0390000  12.3590000   5.5830000
  29.8500000  11.6730000   3.1860000  31.6280000  12.5560000   2.7770000
  29.0130000  10.9970000   5.4360000  30.0060000  11.2120000   7.1960000
  33.0310000  12.9310000   4.7500000  32.2180000  12.2570000   6.9700000
  32.8520000  13.0320000   3.3760000  31.4640000  12.6810000   1.3540000
  29.0140000  10.6410000   8.0280000  31.2370000  11.7000000   7.8010000
  33.8360000  13.2520000   5.1400000  33.0320000  12.5750000   7.3430000
  33.8480000  13.6180000   2.5130000  30.6640000  12.3750000   0.9420000
  32.4430000  13.2320000   0.5920000  29.1930000  10.5390000   9.4030000
  28.2090000  10.3190000   7.6390000  31.3940000  11.5810000   9.1920000
  33.6500000  13.7150000   1.1770000  34.6580000  13.9420000   2.8880000
  32.3220000  13.2970000  -0.3480000  28.1970000   9.9540000  10.2660000
  30.4180000  11.0150000  10.0020000  32.1950000  11.8980000   9.5930000
  34.3190000  14.1070000   0.6280000  28.3950000   9.8560000  11.6020000
  27.3870000   9.6300000   9.8910000  30.5810000  10.8900000  11.4250000
  29.6020000  10.3390000  12.1860000  27.7270000   9.4650000  12.1510000
  31.3810000  11.1970000  11.8360000  29.7240000  10.2740000  13.1270000
  33.2420000  24.8070000  64.0280000  33.3990000  24.6880000  65.4200000
  34.2230000  25.3650000  63.1970000  32.0110000  24.3190000  63.4240000
  34.2000000  25.0060000  65.8200000  32.4230000  24.1230000  66.2290000
  35.0370000  25.6820000  63.5700000  34.0440000  25.4670000  61.8100000
  31.0190000  23.7480000  64.2560000  31.8320000  24.4210000  62.0360000
  31.1980000  23.6470000  65.6300000  32.5860000  23.9970000  67.6520000
  35.0360000  26.0380000  60.9780000  32.8130000  24.9790000  61.2050000
  30.2140000  23.4270000  63.8660000  31.0180000  24.1040000  61.6640000
  30.2020000  23.0610000  66.4940000  33.3860000  24.3040000  68.0640000
  31.6080000  23.4460000  68.4140000  34.8570000  26.1390000  59.6030000
  35.8410000  26.3590000  61.3670000  32.6570000  25.0980000  59.8140000
  30.4000000  22.9640000  67.8290000  29.3920000  22.7370000  66.1180000
  31.7290000  23.3810000  69.3540000  35.8530000  26.7250000  58.7400000
  33.6330000  25.6630000  59.0040000  31.8550000  24.7810000  59.4130000
  29.7320000  22.5720000  68.3790000  35.6550000  26.8220000  57.4040000
  36.6630000  27.0490000  59.1150000  33.4690000  25.7890000  57.5820000
  34.4480000  26.3400000  56.8200000  36.3240000  27.2140000  56.8550000
  32.6690000  25.4820000  57.1700000  34.3270000  26.4050000  55.8790000
  32.0450000  22.8270000  19.0350000  31.8890000  22.9460000  17.6430000
  31.0640000  22.2700000  19.8660000  33.2760000  23.3150000  19.6390000
  31.0880000  22.6290000  17.2430000  32.8650000  23.5120000  16.8340000
  30.2510000  21.9520000  19.4930000  31.2440000  22.1680000  21.2530000
  34.2680000  23.8860000  18.8070000  33.4560000  23.2130000  21.0270000
  34.0900000  23.9870000  17.4320000  32.7010000  23.6370000  15.4110000
  30.2520000  21.5960000  22.0850000  32.4740000  22.6560000  21.8580000
  35.0730000  24.2080000  19.1970000  34.2690000  23.5300000  21.3990000
  35.0860000  24.5730000  16.5690000  31.9010000  23.3300000  14.9990000
  33.6800000  24.1880000  14.6490000  30.4300000  21.4950000  23.4600000
  29.4460000  21.2750000  21.6960000  32.6310000  22.5360000  23.2490000
  34.8880000  24.6710000  15.2340000  35.8950000  24.8970000  16.9450000
  33.5590000  24.2530000  13.7090000  29.4340000  20.9090000  24.3230000
  31.6550000  21.9710000  24.0590000  33.4320000  22.8540000  23.6500000
  35.5560000  25.0620000  14.6840000  29.6320000  20.8120000  25.6590000
  28.6250000  20.5850000  23.9480000  31.8190000  21.8460000  25.4810000
  30.8400000  21.2940000  26.2430000  28.9640000  20.4200000  26.2080000
  32.6190000  22.1520000  25.8930000  30.9610000  21.2300000  27.1840000
  31.5440000  19.5500000   4.9780000  31.3880000  19.6690000   3.5870000
  30.5630000  18.9930000   5.8090000  32.7750000  20.0380000   5.5830000
  30.5860000  19.3520000   3.1860000  32.3640000  20.2350000   2.7770000
  29.7500000  18.6760000   5.4360000  30.7420000  18.8910000   7.1960000
  33.7670000  20.6100000   4.7500000  32.9540000  19.9360000   6.9700000
  33.5880000  20.7110000   3.3760000  32.2000000  20.3600000   1.3540000
  29.7500000  18.3190000   8.0280000  31.9730000  19.3790000   7.8010000
  34.5720000  20.9310000   5.1400000  33.7680000  20.2530000   7.3430000
  34.5840000  21.2960000   2.5130000  31.4000000  20.0540000   0.9420000
  33.1790000  20.9110000   0.5920000  29.9290000  18.2180000   9.4030000
  28.9450000  17.9980000   7.6390000  32.1300000  19.2590000   9.1920000
  34.3860000  21.3940000   1.1770000  35.3940000  21.6200000   2.8880000
  33.0580000  20.9760000  -0.3480000  28.9330000  17.6320000  10.2660000
  31.1540000  18.6940000  10.0020000  32.9310000  19.5770000   9.5930000
  35.0550000  21.7850000   0.6280000  29.1310000  17.5350000  11.6020000
  28.1230000  17.3080000   9.8910000  31.3180000  18.5690000  11.4250000
  30.3390000  18.0180000  12.1860000  28.4630000  17.1430000  12.1510000
  32.1170000  18.8750000  11.8360000  30.4600000  17.9530000  13.1270000
  33.9780000  32.4860000  64.0280000  34.1350000  32.3670000  65.4200000
  34.9590000  33.0430000  63.1970000  32.7470000  31.9980000  63.4240000
  34.9360000  32.6840000  65.8200000  33.1590000  31.8010000  66.2290000
  35.7730000  33.3610000  63.5700000  34.7800000  33.1450000  61.8100000
  31.7560000  31.4270000  64.2560000  32.5680000  32.1000000  62.0360000
  31.9340000  31.3250000  65.6300000  33.3230000  31.6760000  67.6520000
  35.7720000  33.7170000  60.9780000  33.5490000  32.6570000  61.2050000
  30.9500000  31.1050000  63.8660000  31.7550000  31.7830000  61.6640000
  30.9380000  30.7400000  66.4940000  34.1220000  31.9820000  68.0640000
  32.3440000  31.1250000  68.4140000  35.5930000  33.8180000  59.6030000
  36.5770000  34.0380000  61.3670000  33.3930000  32.7770000  59.8140000
  31.1360000  30.6420000  67.8290000  30.1280000  30.4160000  66.1180000
  32.4650000  31.0600000  69.3540000  36.5890000  34.4040000  58.7400000
  34.3690000  33.3420000  59.0040000  32.5910000  32.4590000  59.4130000
  30.4680000  30.2510000  68.3790000  36.3910000  34.5010000  57.4040000
  37.3990000  34.7280000  59.1150000  34.2050000  33.4670000  57.5820000
  35.1840000  34.0180000  56.8200000  37.0600000  34.8930000  56.8550000
  33.4050000  33.1610000  57.1700000  35.0630000  34.0830000  55.8790000
  34.9810000  39.0400000  92.1420000  35.1370000  38.9200000  93.5330000
  35.9620000  39.5970000  91.3110000  33.7500000  38.5520000  91.5370000
  35.9390000  39.2380000  93.9340000  34.1610000  38.3550000  94.3430000
  36.7750000  39.9140000  91.6830000  35.7830000  39.6990000  89.9230000
  32.7580000  37.9800000  92.3690000  33.5710000  38.6540000  90.1500000
  32.9370000  37.8790000  93.7440000  34.3250000  38.2300000  95.7650000
  36.7740000  40.2710000  89.0910000  34.5520000  39.2110000  89.3190000
  31.9530000  37.6590000  91.9800000  32.7570000  38.3370000  89.7770000
  31.9410000  37.2930000  94.6070000  35.1250000  38.5360000  96.1770000
  33.3460000  37.6790000  96.5270000  36.5960000  40.3720000  87.7170000
  37.5800000  40.5920000  89.4810000  34.3950000  39.3300000  87.9270000
  32.1390000  37.1960000  95.9430000  31.1310000  36.9690000  94.2320000
  33.4670000  37.6140000  97.4680000  37.5920000  40.9570000  86.8530000
  35.3710000  39.8960000  87.1180000  33.5940000  39.0130000  87.5270000
  31.4700000  36.8040000  96.4920000  37.3940000  41.0550000  85.5180000
  38.4020000  41.2810000  87.2290000  35.2070000  40.0210000  85.6950000
  36.1860000  40.5720000  84.9330000  38.0620000  41.4460000  84.9680000
  34.4080000  39.7150000  85.2830000  36.0650000  40.6370000  83.9930000
  32.2800000  27.2290000   4.9780000  32.1240000  27.3480000   3.5870000
  31.2990000  26.6710000   5.8090000  33.5110000  27.7170000   5.5830000
  31.3230000  27.0300000   3.1860000  33.1000000  27.9130000   2.7770000
  30.4860000  26.3540000   5.4360000  31.4790000  26.5690000   7.1960000
  34.5030000  28.2880000   4.7500000  33.6910000  27.6150000   6.9700000
  34.3240000  28.3890000   3.3760000  32.9360000  28.0390000   1.3540000
  30.4870000  25.9980000   8.0280000  32.7090000  27.0570000   7.8010000
  35.3080000  28.6090000   5.1400000  34.5040000  27.9320000   7.3430000
  35.3200000  28.9750000   2.5130000  32.1360000  27.7320000   0.9420000
  33.9150000  28.5900000   0.5920000  30.6650000  25.8970000   9.4030000
  29.6810000  25.6770000   7.6390000  32.8660000  26.9380000   9.1920000
  35.1220000  29.0720000   1.1770000  36.1300000  29.2990000   2.8880000
  33.7940000  28.6550000  -0.3480000  29.6690000  25.3110000  10.2660000
  31.8900000  26.3730000  10.0020000  33.6670000  27.2550000   9.5930000
  35.7910000  29.4640000   0.6280000  29.8670000  25.2140000  11.6020000
  28.8590000  24.9870000   9.8910000  32.0540000  26.2470000  11.4250000
  31.0750000  25.6960000  12.1860000  29.1990000  24.8220000  12.1510000
  32.8530000  26.5540000  11.8360000  31.1960000  25.6310000  13.1270000
  33.2110000  30.3340000  21.8580000  33.3670000  30.2150000  23.2490000
  34.1920000  30.8910000  21.0270000  31.9800000  29.8460000  21.2530000
  34.1680000  30.5320000  23.6500000  32.3910000  29.6490000  24.0590000
  35.0050000  31.2090000  21.3990000  34.0120000  30.9930000  19.6390000
  30.9880000  29.2750000  22.0850000  31.8000000  29.9480000  19.8660000
  31.1670000  29.1740000  23.4600000  32.5550000  29.5240000  25.4810000
  35.0040000  31.5650000  18.8070000  32.7820000  30.5050000  19.0350000
  30.1830000  28.9530000  21.6960000  30.9870000  29.6310000  19.4930000
  30.1710000  28.5880000  24.3230000  33.3550000  29.8310000  25.8930000
  31.5760000  28.9730000  26.2430000  34.8260000  31.6660000  17.4320000
  35.8100000  31.8860000  19.1970000  32.6250000  30.6250000  17.6430000
  30.3690000  28.4900000  25.6590000  29.3610000  28.2640000  23.9480000
  31.6970000  28.9080000  27.1840000  35.8220000  32.2520000  16.5690000
  33.6010000  31.1900000  16.8340000  31.8240000  30.3070000  17.2430000
  29.7000000  28.0990000  26.2080000  35.6240000  32.3490000  15.2340000
  36.6310000  32.5760000  16.9450000  33.4370000  31.3150000  15.4110000
  34.4160000  31.8670000  14.6490000  36.2920000  32.7410000  14.6840000
  32.6370000  31.0090000  14.9990000  34.2950000  31.9310000  13.7090000
  34.7140000  40.1650000  64.0280000  34.8710000  40.0450000  65.4200000
  35.6960000  40.7220000  63.1970000  33.4840000  39.6770000  63.4240000
  35.6720000  40.3630000  65.8200000  33.8950000  39.4800000  66.2290000
  36.5090000  41.0390000  63.5700000  35.5160000  40.8240000  61.8100000
  32.4920000  39.1050000  64.2560000  33.3040000  39.7790000  62.0360000
  32.6700000  39.0040000  65.6300000  34.0590000  39.3550000  67.6520000
  36.5080000  41.3950000  60.9780000  34.2850000  40.3360000  61.2050000
  31.6860000  38.7840000  63.8660000  32.4910000  39.4610000  61.6640000
  31.6740000  38.4180000  66.4940000  34.8590000  39.6610000  68.0640000
  33.0800000  38.8040000  68.4140000  36.3290000  41.4970000  59.6030000
  37.3130000  41.7170000  61.3670000  34.1290000  40.4550000  59.8140000
  31.8720000  38.3210000  67.8290000  30.8650000  38.0940000  66.1180000
  33.2010000  38.7390000  69.3540000  37.3250000  42.0820000  58.7400000
  35.1050000  41.0210000  59.0040000  33.3280000  40.1380000  59.4130000
  31.2040000  37.9290000  68.3790000  37.1270000  42.1800000  57.4040000
  38.1350000  42.4060000  59.1150000  34.9410000  41.1460000  57.5820000
  35.9200000  41.6970000  56.8200000  37.7960000  42.5710000  56.8550000
  34.1410000  40.8400000  57.1700000  35.7990000  41.7620000  55.8790000
  35.4510000  47.8430000  64.0280000  35.6070000  47.7240000  65.4200000
  36.4320000  48.4010000  63.1970000  34.2200000  47.3550000  63.4240000
  36.4080000  48.0410000  65.8200000  34.6310000  47.1590000  66.2290000
  37.2450000  48.7180000  63.5700000  36.2520000  48.5030000  61.8100000
  33.2280000  46.7840000  64.2560000  34.0400000  47.4570000  62.0360000
  33.4060000  46.6830000  65.6300000  34.7950000  47.0330000  67.6520000
  37.2440000  49.0740000  60.9780000  35.0210000  48.0150000  61.2050000
  32.4220000  46.4630000  63.8660000  33.2270000  47.1400000  61.6640000
  32.4100000  46.0970000  66.4940000  35.5950000  47.3400000  68.0640000
  33.8160000  46.4820000  68.4140000  37.0660000  49.1750000  59.6030000
  38.0500000  49.3950000  61.3670000  34.8650000  48.1340000  59.8140000
  32.6080000  46.0000000  67.8290000  31.6010000  45.7730000  66.1180000
  33.9370000  46.4170000  69.3540000  38.0620000  49.7610000  58.7400000
  35.8410000  48.6990000  59.0040000  34.0640000  47.8160000  59.4130000
  31.9400000  45.6080000  68.3790000  37.8640000  49.8580000  57.4040000
  38.8710000  50.0850000  59.1150000  35.6770000  48.8250000  57.5820000
  36.6560000  49.3760000  56.8200000  38.5320000  50.2500000  56.8550000
  34.8770000  48.5180000  57.1700000  36.5350000  49.4400000  55.8790000
  34.7550000  49.1390000  33.0920000  34.5990000  49.2590000  31.7000000
  33.7740000  48.5820000  33.9230000  35.9860000  49.6270000  33.6960000
  33.7970000  48.9410000  31.3000000  35.5750000  49.8240000  30.8900000
  32.9600000  48.2650000  33.5500000  33.9530000  48.4800000  35.3100000
  36.9780000  50.1990000  32.8640000  36.1650000  49.5250000  35.0840000
  36.7990000  50.3000000  31.4890000  35.4110000  49.9490000  29.4680000
  32.9610000  47.9090000  36.1420000  35.1840000  48.9680000  35.9140000
  37.7830000  50.5200000  33.2530000  36.9790000  49.8430000  35.4560000
  37.7950000  50.8860000  30.6260000  34.6110000  49.6430000  29.0560000
  36.3900000  50.5010000  28.7060000  33.1400000  47.8080000  37.5170000
  32.1560000  47.5870000  35.7530000  35.3410000  48.8490000  37.3060000
  37.5970000  50.9830000  29.2910000  38.6050000  51.2100000  31.0020000
  36.2690000  50.5650000  27.7660000  32.1440000  47.2220000  38.3800000
  34.3650000  48.2830000  38.1160000  36.1420000  49.1660000  37.7070000
  38.2660000  51.3750000  28.7410000  32.3420000  47.1240000  39.7150000
  31.3340000  46.8980000  38.0050000  34.5280000  48.1580000  39.5380000
  33.5490000  47.6070000  40.3000000  31.6740000  46.7330000  40.2650000
  35.3280000  48.4650000  39.9500000  33.6710000  47.5420000  41.2410000
  35.7580000  55.6930000  61.2050000  35.6010000  55.8130000  59.8140000
  34.7760000  55.1360000  62.0360000  36.9880000  56.1810000  61.8100000
  34.8000000  55.4950000  59.4130000  36.5770000  56.3780000  59.0040000
  33.9630000  54.8190000  61.6640000  34.9560000  55.0340000  63.4240000
  37.9800000  56.7530000  60.9780000  37.1680000  56.0790000  63.1970000
  37.8020000  56.8540000  59.6030000  36.4130000  56.5030000  57.5820000
  33.9640000  54.4620000  64.2560000  36.1870000  55.5220000  64.0280000
  38.7860000  57.0740000  61.3670000  37.9810000  56.3960000  63.5700000
  38.7980000  57.4400000  58.7400000  35.6130000  56.1970000  57.1700000
  37.3920000  57.0540000  56.8200000  34.1430000  54.3610000  65.6300000
  33.1590000  54.1410000  63.8660000  36.3430000  55.4020000  65.4200000
  38.6000000  57.5370000  57.4040000  39.6070000  57.7640000  59.1150000
  37.2710000  57.1190000  55.8790000  33.1470000  53.7750000  66.4940000
  35.3670000  54.8370000  66.2290000  37.1440000  55.7200000  65.8200000
  39.2680000  57.9290000  56.8550000  33.3450000  53.6780000  67.8290000
  32.3370000  53.4510000  66.1180000  35.5310000  54.7120000  67.6520000
  34.5520000  54.1610000  68.4140000  32.6760000  53.2860000  68.3790000
  36.3310000  55.0180000  68.0640000  34.6730000  54.0960000  69.3540000
  34.6830000  45.6910000  21.8580000  34.8390000  45.5720000  23.2490000
  35.6640000  46.2490000  21.0270000  33.4520000  45.2030000  21.2530000
  35.6410000  45.8900000  23.6500000  33.8630000  45.0070000  24.0590000
  36.4780000  46.5660000  21.3990000  35.4850000  46.3510000  19.6390000
  32.4600000  44.6320000  22.0850000  33.2730000  45.3050000  19.8660000
  32.6390000  44.5310000  23.4600000  34.0270000  44.8810000  25.4810000
  36.4770000  46.9220000  18.8070000  34.2540000  45.8630000  19.0350000
  31.6550000  44.3110000  21.6960000  32.4590000  44.9880000  19.4930000
  31.6430000  43.9450000  24.3230000  34.8270000  45.1880000  25.8930000
  33.0480000  44.3300000  26.2430000  36.2980000  47.0230000  17.4320000
  37.2820000  47.2430000  19.1970000  34.0970000  45.9820000  17.6430000
  31.8410000  43.8480000  25.6590000  30.8330000  43.6210000  23.9480000
  33.1690000  44.2650000  27.1840000  37.2940000  47.6090000  16.5690000
  35.0730000  46.5470000  16.8340000  33.2960000  45.6640000  17.2430000
  31.1720000  43.4560000  26.2080000  37.0960000  47.7060000  15.2340000
  38.1040000  47.9330000  16.9450000  34.9090000  46.6730000  15.4110000
  35.8880000  47.2240000  14.6490000  37.7640000  48.0980000  14.6840000
  34.1100000  46.3660000  14.9990000  35.7670000  47.2890000  13.7090000
  35.6850000  52.2450000  49.9710000  35.8420000  52.1260000  51.3630000
  36.6670000  52.8020000  49.1400000  34.4550000  51.7570000  49.3670000
  36.6430000  52.4430000  51.7630000  34.8660000  51.5600000  52.1730000
  37.4800000  53.1200000  49.5130000  36.4870000  52.9040000  47.7530000
  33.4630000  51.1850000  50.1990000  34.2750000  51.8590000  47.9790000
  33.6410000  51.0840000  51.5740000  35.0300000  51.4350000  53.5950000
  37.4790000  53.4760000  46.9210000  35.2560000  52.4160000  47.1490000
  32.6570000  50.8640000  49.8100000  33.4620000  51.5420000  47.6070000
  32.6450000  50.4990000  52.4370000  35.8300000  51.7410000  54.0070000
  34.0510000  50.8840000  54.3570000  37.3000000  53.5770000  45.5460000
  38.2840000  53.7970000  47.3100000  35.1000000  52.5360000  45.7570000
  32.8430000  50.4010000  53.7720000  31.8350000  50.1750000  52.0610000
  34.1720000  50.8190000  55.2970000  38.2960000  54.1630000  44.6830000
  36.0760000  53.1010000  44.9470000  34.2990000  52.2180000  45.3560000
  32.1750000  50.0100000  54.3220000  38.0980000  54.2600000  43.3480000
  39.1060000  54.4870000  45.0580000  35.9120000  53.2260000  43.5250000
  36.8910000  53.7770000  42.7630000  38.7670000  54.6520000  42.7980000
  35.1120000  52.9200000  43.1130000  36.7700000  53.8420000  41.8220000
  33.7530000  42.5860000   4.9780000  33.5960000  42.7050000   3.5870000
  32.7710000  42.0280000   5.8090000  34.9830000  43.0740000   5.5830000
  32.7950000  42.3880000   3.1860000  34.5720000  43.2710000   2.7770000
  31.9580000  41.7110000   5.4360000  32.9510000  41.9270000   7.1960000
  35.9750000  43.6450000   4.7500000  35.1630000  42.9720000   6.9700000
  35.7970000  43.7460000   3.3760000  34.4080000  43.3960000   1.3540000
  31.9590000  41.3550000   8.0280000  34.1820000  42.4150000   7.8010000
  36.7810000  43.9660000   5.1400000  35.9760000  43.2890000   7.3430000
  36.7930000  44.3320000   2.5130000  33.6080000  43.0890000   0.9420000
  35.3870000  43.9470000   0.5920000  32.1380000  41.2540000   9.4030000
  31.1540000  41.0340000   7.6390000  34.3380000  42.2950000   9.1920000
  36.5950000  44.4290000   1.1770000  37.6020000  44.6560000   2.8880000
  35.2660000  44.0120000  -0.3480000  31.1420000  40.6680000  10.2660000
  33.3620000  41.7300000  10.0020000  35.1390000  42.6130000   9.5930000
  37.2630000  44.8210000   0.6280000  31.3390000  40.5710000  11.6020000
  30.3320000  40.3440000   9.8910000  33.5260000  41.6050000  11.4250000
  32.5470000  41.0530000  12.1860000  30.6710000  40.1790000  12.1510000
  34.3260000  41.9110000  11.8360000  32.6680000  40.9890000  13.1270000
  36.2590000  58.9700000  75.2620000  36.1020000  59.0890000  73.8710000
  35.2780000  58.4130000  76.0930000  37.4900000  59.4580000  75.8670000
  35.3010000  58.7720000  73.4700000  37.0780000  59.6550000  73.0610000
  34.4640000  58.0950000  75.7200000  35.4570000  58.3110000  77.4800000
  38.4820000  60.0300000  75.0350000  37.6690000  59.3560000  77.2540000
  38.3030000  60.1310000  73.6600000  36.9150000  59.7800000  71.6380000
  34.4650000  57.7390000  78.3130000  36.6880000  58.7990000  78.0850000
  39.2870000  60.3510000  75.4240000  38.4830000  59.6730000  77.6270000
  39.2990000  60.7160000  72.7970000  36.1150000  59.4740000  71.2270000
  37.8930000  60.3310000  70.8770000  34.6440000  57.6380000  79.6870000
  33.6600000  57.4180000  77.9230000  36.8440000  58.6790000  79.4760000
  39.1010000  60.8140000  71.4610000  40.1090000  61.0400000  73.1720000
  37.7720000  60.3960000  69.9360000  33.6480000  57.0520000  80.5500000
  35.8680000  58.1140000  80.2860000  37.6460000  58.9970000  79.8770000
  39.7690000  61.2050000  70.9120000  33.8460000  56.9550000  81.8860000
  32.8380000  56.7280000  80.1750000  36.0320000  57.9890000  81.7090000
  35.0530000  57.4380000  82.4710000  33.1770000  56.5630000  82.4350000
  36.8320000  58.2950000  82.1210000  35.1740000  57.3730000  83.4110000
  36.9950000  66.6490000  75.2620000  36.8390000  66.7680000  73.8710000
  36.0140000  66.0910000  76.0930000  38.2260000  67.1370000  75.8670000
  36.0370000  66.4500000  73.4700000  37.8140000  67.3330000  73.0610000
  35.2000000  65.7740000  75.7200000  36.1930000  65.9890000  77.4800000
  39.2180000  67.7080000  75.0350000  38.4050000  67.0350000  77.2540000
  39.0390000  67.8090000  73.6600000  37.6510000  67.4590000  71.6380000
  35.2010000  65.4180000  78.3130000  37.4240000  66.4770000  78.0850000
  40.0230000  68.0290000  75.4240000  39.2190000  67.3520000  77.6270000
  40.0350000  68.3950000  72.7970000  36.8510000  67.1520000  71.2270000
  38.6300000  68.0100000  70.8770000  35.3800000  65.3170000  79.6870000
  34.3960000  65.0970000  77.9230000  37.5800000  66.3580000  79.4760000
  39.8370000  68.4920000  71.4610000  40.8450000  68.7190000  73.1720000
  38.5080000  68.0750000  69.9360000  34.3840000  64.7310000  80.5500000
  36.6050000  65.7930000  80.2860000  38.3820000  66.6750000  79.8770000
  40.5050000  68.8840000  70.9120000  34.5820000  64.6340000  81.8860000
  33.5740000  64.4070000  80.1750000  36.7680000  65.6670000  81.7090000
  35.7890000  65.1160000  82.4710000  33.9130000  64.2420000  82.4350000
  37.5680000  65.9740000  82.1210000  35.9110000  65.0510000  83.4110000
  34.9900000  53.5410000  19.0350000  34.8330000  53.6610000  17.6430000
  34.0090000  52.9840000  19.8660000  36.2210000  54.0290000  19.6390000
  34.0320000  53.3430000  17.2430000  35.8090000  54.2260000  16.8340000
  33.1950000  52.6670000  19.4930000  34.1880000  52.8820000  21.2530000
  37.2130000  54.6010000  18.8070000  36.4000000  53.9270000  21.0270000
  37.0340000  54.7020000  17.4320000  35.6460000  54.3510000  15.4110000
  33.1960000  52.3100000  22.0850000  35.4190000  53.3700000  21.8580000
  38.0180000  54.9220000  19.1970000  37.2140000  54.2440000  21.3990000
  38.0300000  55.2880000  16.5690000  34.8460000  54.0450000  14.9990000
  36.6250000  54.9020000  14.6490000  33.3750000  52.2090000  23.4600000
  32.3910000  51.9890000  21.6960000  35.5750000  53.2510000  23.2490000
  37.8320000  55.3850000  15.2340000  38.8400000  55.6120000  16.9450000
  36.5030000  54.9670000  13.7090000  32.3790000  51.6230000  24.3230000
  34.5990000  52.6850000  24.0590000  36.3770000  53.5680000  23.6500000
  38.5000000  55.7770000  14.6840000  32.5770000  51.5260000  25.6590000
  31.5690000  51.2990000  23.9480000  34.7630000  52.5600000  25.4810000
  33.7840000  52.0090000  26.2430000  31.9080000  51.1350000  26.2080000
  35.5630000  52.8660000  25.8930000  33.9050000  51.9440000  27.1840000
  36.9230000  63.2000000  64.0280000  37.0790000  63.0810000  65.4200000
  37.9040000  63.7580000  63.1970000  35.6920000  62.7120000  63.4240000
  37.8810000  63.3990000  65.8200000  36.1030000  62.5160000  66.2290000
  38.7170000  64.0750000  63.5700000  37.7250000  63.8600000  61.8100000
  34.7000000  62.1410000  64.2560000  35.5130000  62.8140000  62.0360000
  34.8790000  62.0400000  65.6300000  36.2670000  62.3900000  67.6520000
  38.7160000  64.4310000  60.9780000  36.4940000  63.3720000  61.2050000
  33.8950000  61.8200000  63.8660000  34.6990000  62.4970000  61.6640000
  33.8830000  61.4540000  66.4940000  37.0670000  62.6970000  68.0640000
  35.2880000  61.8390000  68.4140000  38.5380000  64.5320000  59.6030000
  39.5220000  64.7520000  61.3670000  36.3370000  63.4910000  59.8140000
  34.0810000  61.3570000  67.8290000  33.0730000  61.1300000  66.1180000
  35.4090000  61.7740000  69.3540000  39.5340000  65.1180000  58.7400000
  37.3130000  64.0560000  59.0040000  35.5360000  63.1740000  59.4130000
  33.4120000  60.9650000  68.3790000  39.3360000  65.2150000  57.4040000
  40.3440000  65.4420000  59.1150000  37.1490000  64.1820000  57.5820000
  38.1280000  64.7330000  56.8200000  40.0040000  65.6070000  56.8550000
  36.3500000  63.8750000  57.1700000  38.0070000  64.7980000  55.8790000
  35.7260000  61.2200000  19.0350000  35.5700000  61.3390000  17.6430000
  34.7450000  60.6630000  19.8660000  36.9570000  61.7080000  19.6390000
  34.7680000  61.0220000  17.2430000  36.5460000  61.9050000  16.8340000
  33.9310000  60.3450000  19.4930000  34.9240000  60.5610000  21.2530000
  37.9490000  62.2790000  18.8070000  37.1360000  61.6060000  21.0270000
  37.7700000  62.3800000  17.4320000  36.3820000  62.0300000  15.4110000
  33.9320000  59.9890000  22.0850000  36.1550000  61.0490000  21.8580000
  38.7540000  62.6000000  19.1970000  37.9500000  61.9230000  21.3990000
  38.7660000  62.9660000  16.5690000  35.5820000  61.7230000  14.9990000
  37.3610000  62.5810000  14.6490000  34.1110000  59.8880000  23.4600000
  33.1270000  59.6680000  21.6960000  36.3120000  60.9290000  23.2490000
  38.5680000  63.0640000  15.2340000  39.5760000  63.2900000  16.9450000
  37.2400000  62.6460000  13.7090000  33.1150000  59.3020000  24.3230000
  35.3360000  60.3640000  24.0590000  37.1130000  61.2470000  23.6500000
  39.2370000  63.4550000  14.6840000  33.3130000  59.2050000  25.6590000
  32.3050000  58.9780000  23.9480000  35.4990000  60.2390000  25.4810000
  34.5200000  59.6870000  26.2430000  32.6450000  58.8130000  26.2080000
  36.2990000  60.5450000  25.8930000  34.6420000  59.6230000  27.1840000
  36.6560000  64.3250000  35.9140000  36.8130000  64.2060000  37.3060000
  37.6380000  64.8830000  35.0840000  35.4260000  63.8370000  35.3100000
  37.6140000  64.5240000  37.7070000  35.8370000  63.6410000  38.1160000
  38.4510000  65.2000000  35.4560000  37.4580000  64.9850000  33.6960000
  34.4340000  63.2660000  36.1420000  35.2460000  63.9390000  33.9230000
  34.6120000  63.1650000  37.5170000  36.0010000  63.5150000  39.5380000
  38.4500000  65.5560000  32.8640000  36.2270000  64.4970000  33.0920000
  33.6280000  62.9450000  35.7530000  34.4330000  63.6220000  33.5500000
  33.6160000  62.5790000  38.3800000  36.8000000  63.8220000  39.9500000
  35.0220000  62.9640000  40.3000000  38.2710000  65.6570000  31.4890000
  39.2550000  65.8770000  33.2530000  36.0710000  64.6160000  31.7000000
  33.8140000  62.4820000  39.7150000  32.8060000  62.2550000  38.0050000
  35.1430000  62.8990000  41.2410000  39.2670000  66.2430000  30.6260000
  37.0470000  65.1810000  30.8900000  35.2700000  64.2980000  31.3000000
  33.1460000  62.0900000  40.2650000  39.0690000  66.3400000  29.2910000
  40.0770000  66.5670000  31.0020000  36.8830000  65.3070000  29.4680000
  37.8620000  65.8580000  28.7060000  39.7380000  66.7320000  28.7410000
  36.0830000  65.0000000  29.0560000  37.7410000  65.9230000  27.7660000
  36.7290000  67.7730000  47.1490000  36.5720000  67.8930000  45.7570000
  35.7470000  67.2160000  47.9790000  37.9590000  68.2610000  47.7530000
  35.7710000  67.5750000  45.3560000  37.5480000  68.4580000  44.9470000
  34.9340000  66.8990000  47.6070000  35.9270000  67.1140000  49.3670000
  38.9510000  68.8330000  46.9210000  38.1390000  68.1600000  49.1400000
  38.7730000  68.9340000  45.5460000  37.3840000  68.5830000  43.5250000
  34.9350000  66.5430000  50.1990000  37.1580000  67.6020000  49.9710000
  39.7570000  69.1540000  47.3100000  38.9520000  68.4770000  49.5130000
  39.7690000  69.5200000  44.6830000  36.5840000  68.2770000  43.1130000
  38.3630000  69.1350000  42.7630000  35.1140000  66.4420000  51.5740000
  34.1300000  66.2220000  49.8100000  37.3140000  67.4830000  51.3630000
  39.5710000  69.6170000  43.3480000  40.5780000  69.8440000  45.0580000
  38.2420000  69.1990000  41.8220000  34.1180000  65.8560000  52.4370000
  36.3380000  66.9170000  52.1730000  38.1150000  67.8000000  51.7630000
  40.2390000  70.0090000  42.7980000  34.3160000  65.7590000  53.7720000
  33.3080000  65.5320000  52.0610000  36.5020000  66.7920000  53.5950000
  35.5230000  66.2410000  54.3570000  33.6470000  65.3670000  54.3220000
  37.3020000  67.0990000  54.0070000  35.6440000  66.1760000  55.2970000
  38.2320000  77.6040000  89.3190000  38.0760000  77.7230000  87.9270000
  37.2510000  77.0470000  90.1500000  39.4630000  78.0920000  89.9230000
  37.2750000  77.4060000  87.5270000  39.0520000  78.2890000  87.1180000
  36.4380000  76.7290000  89.7770000  37.4310000  76.9450000  91.5370000
  40.4550000  78.6640000  89.0910000  39.6430000  77.9900000  91.3110000
  40.2760000  78.7650000  87.7170000  38.8880000  78.4140000  85.6950000
  36.4390000  76.3730000  92.3690000  38.6610000  77.4330000  92.1420000
  41.2600000  78.9850000  89.4810000  40.4560000  78.3070000  91.6830000
  41.2720000  79.3500000  86.8530000  38.0880000  78.1080000  85.2830000
  39.8670000  78.9650000  84.9330000  36.6170000  76.2720000  93.7440000
  35.6330000  76.0520000  91.9800000  38.8180000  77.3130000  93.5330000
  41.0740000  79.4480000  85.5180000  42.0820000  79.6740000  87.2290000
  39.7460000  79.0300000  83.9930000  35.6210000  75.6860000  94.6070000
  37.8420000  76.7480000  94.3430000  39.6190000  77.6310000  93.9340000
  41.7430000  79.8390000  84.9680000  35.8190000  75.5890000  95.9430000
  34.8120000  75.3620000  94.2320000  38.0060000  76.6230000  95.7650000
  37.0270000  76.0720000  96.5270000  35.1510000  75.1970000  96.4920000
  38.8060000  76.9290000  96.1770000  37.1480000  76.0070000  97.4680000
  37.2300000  71.0500000  61.2050000  37.0730000  71.1700000  59.8140000
  36.2490000  70.4930000  62.0360000  38.4610000  71.5380000  61.8100000
  36.2720000  70.8520000  59.4130000  38.0490000  71.7350000  59.0040000
  35.4350000  70.1760000  61.6640000  36.4280000  70.3910000  63.4240000
  39.4530000  72.1100000  60.9780000  38.6400000  71.4360000  63.1970000
  39.2740000  72.2110000  59.6030000  37.8860000  71.8600000  57.5820000
  35.4360000  69.8190000  64.2560000  37.6590000  70.8790000  64.0280000
  40.2580000  72.4310000  61.3670000  39.4540000  71.7540000  63.5700000
  40.2700000  72.7970000  58.7400000  37.0860000  71.5540000  57.1700000
  38.8640000  72.4110000  56.8200000  35.6150000  69.7180000  65.6300000
  34.6310000  69.4980000  63.8660000  37.8150000  70.7600000  65.4200000
  40.0720000  72.8940000  57.4040000  41.0800000  73.1210000  59.1150000
  38.7430000  72.4760000  55.8790000  34.6190000  69.1330000  66.4940000
  36.8390000  70.1940000  66.2290000  38.6170000  71.0770000  65.8200000
  40.7400000  73.2860000  56.8550000  34.8170000  69.0350000  67.8290000
  33.8090000  68.8090000  66.1180000  37.0030000  70.0690000  67.6520000
  36.0240000  69.5180000  68.4140000  34.1480000  68.6440000  68.3790000
  37.8030000  70.3750000  68.0640000  36.1450000  69.4530000  69.3540000
  37.7310000  74.3270000  75.2620000  37.5750000  74.4470000  73.8710000
  36.7500000  73.7700000  76.0930000  38.9620000  74.8150000  75.8670000
  36.7730000  74.1290000  73.4700000  38.5510000  75.0120000  73.0610000
  35.9360000  73.4530000  75.7200000  36.9290000  73.6680000  77.4800000
  39.9540000  75.3870000  75.0350000  39.1410000  74.7130000  77.2540000
  39.7750000  75.4880000  73.6600000  38.3870000  75.1370000  71.6380000
  35.9370000  73.0960000  78.3130000  38.1600000  74.1560000  78.0850000
  40.7590000  75.7080000  75.4240000  39.9550000  75.0300000  77.6270000
  40.7710000  76.0740000  72.7970000  37.5870000  74.8310000  71.2270000
  39.3660000  75.6880000  70.8770000  36.1160000  72.9950000  79.6870000
  35.1320000  72.7750000  77.9230000  38.3170000  74.0360000  79.4760000
  40.5730000  76.1710000  71.4610000  41.5810000  76.3980000  73.1720000
  39.2450000  75.7530000  69.9360000  35.1200000  72.4090000  80.5500000
  37.3410000  73.4710000  80.2860000  39.1180000  74.3540000  79.8770000
  41.2420000  76.5630000  70.9120000  35.3180000  72.3120000  81.8860000
  34.3100000  72.0850000  80.1750000  37.5040000  73.3460000  81.7090000
  36.5250000  72.7950000  82.4710000  34.6500000  71.9200000  82.4350000
  38.3040000  73.6520000  82.1210000  36.6470000  72.7300000  83.4110000
  39.3980000  85.1110000  92.1420000  39.5540000  84.9920000  93.5330000
  40.3790000  85.6690000  91.3110000  38.1670000  84.6230000  91.5370000
  40.3550000  85.3090000  93.9340000  38.5780000  84.4270000  94.3430000
  41.1920000  85.9860000  91.6830000  40.1990000  85.7710000  89.9230000
  37.1750000  84.0520000  92.3690000  37.9870000  84.7250000  90.1500000
  37.3530000  83.9510000  93.7440000  38.7420000  84.3010000  95.7650000
  41.1910000  86.3420000  89.0910000  38.9680000  85.2830000  89.3190000
  36.3690000  83.7310000  91.9800000  37.1740000  84.4080000  89.7770000
  36.3570000  83.3650000  94.6070000  39.5420000  84.6080000  96.1770000
  37.7630000  83.7500000  96.5270000  41.0130000  86.4430000  87.7170000
  41.9970000  86.6630000  89.4810000  38.8120000  85.4020000  87.9270000
  36.5550000  83.2680000  95.9430000  35.5480000  83.0410000  94.2320000
  37.8840000  83.6850000  97.4680000  42.0090000  87.0290000  86.8530000
  39.7880000  85.9670000  87.1180000  38.0110000  85.0840000  87.5270000
  35.8870000  82.8760000  96.4920000  41.8110000  87.1260000  85.5180000
  42.8180000  87.3530000  87.2290000  39.6240000  86.0930000  85.6950000
  40.6030000  86.6440000  84.9330000  42.4790000  87.5180000  84.9680000
  38.8240000  85.7860000  85.2830000  40.4820000  86.7090000  83.9930000
  31.0740000  10.7460000  33.0920000  30.9180000  10.8660000  31.7000000
  30.0930000  10.1890000  33.9230000  32.3050000  11.2340000  33.6960000
  30.1170000  10.5480000  31.3000000  31.8940000  11.4310000  30.8900000
  29.2800000   9.8720000  33.5500000  30.2730000  10.0870000  35.3100000
  33.2970000  11.8060000  32.8640000  32.4850000  11.1320000  35.0840000
  33.1190000  11.9070000  31.4890000  31.7300000  11.5560000  29.4680000
  29.2810000   9.5160000  36.1420000  31.5040000  10.5750000  35.9140000
  34.1030000  12.1270000  33.2530000  33.2980000  11.4500000  35.4560000
  34.1150000  12.4930000  30.6260000  30.9300000  11.2500000  29.0560000
  32.7090000  12.1080000  28.7060000  29.4590000   9.4150000  37.5170000
  28.4750000   9.1950000  35.7530000  31.6600000  10.4560000  37.3060000
  33.9170000  12.5900000  29.2910000  34.9240000  12.8170000  31.0020000
  32.5880000  12.1720000  27.7660000  28.4630000   8.8290000  38.3800000
  30.6840000   9.8900000  38.1160000  32.4610000  10.7730000  37.7070000
  34.5850000  12.9820000  28.7410000  28.6610000   8.7320000  39.7150000
  27.6540000   8.5050000  38.0050000  30.8480000   9.7650000  39.5380000
  29.8690000   9.2140000  40.3000000  27.9930000   8.3400000  40.2650000
  31.6480000  10.0720000  39.9500000  29.9900000   9.1490000  41.2410000
  33.0070000  20.4060000  78.0850000  33.1640000  20.2860000  79.4760000
  33.9880000  20.9630000  77.2540000  31.7760000  19.9180000  77.4800000
  33.9650000  20.6040000  79.8770000  32.1880000  19.7210000  80.2860000
  34.8020000  21.2800000  77.6270000  33.8090000  21.0650000  75.8670000
  30.7850000  19.3460000  78.3130000  31.5970000  20.0200000  76.0930000
  30.9630000  19.2450000  79.6870000  32.3520000  19.5960000  81.7090000
  34.8010000  21.6370000  75.0350000  32.5780000  20.5770000  75.2620000
  29.9790000  19.0250000  77.9230000  30.7840000  19.7020000  75.7200000
  29.9670000  18.6590000  80.5500000  33.1510000  19.9020000  82.1210000
  31.3730000  19.0450000  82.4710000  34.6220000  21.7380000  73.6600000
  35.6060000  21.9580000  75.4240000  32.4220000  20.6960000  73.8710000
  30.1650000  18.5620000  81.8860000  29.1570000  18.3350000  80.1750000
  31.4940000  18.9800000  83.4110000  35.6180000  22.3230000  72.7970000
  33.3980000  21.2620000  73.0610000  31.6200000  20.3790000  73.4700000
  29.4970000  18.1700000  82.4350000  35.4200000  22.4210000  71.4610000
  36.4280000  22.6470000  73.1720000  33.2340000  21.3870000  71.6380000
  34.2130000  21.9380000  70.8770000  36.0890000  22.8120000  70.9120000
  32.4340000  21.0810000  71.2270000  34.0920000  22.0030000  69.9360000
  31.8110000  18.4250000  33.0920000  31.6540000  18.5450000  31.7000000
  30.8290000  17.8680000  33.9230000  33.0410000  18.9130000  33.6960000
  30.8530000  18.2270000  31.3000000  32.6300000  19.1100000  30.8900000
  30.0160000  17.5510000  33.5500000  31.0090000  17.7660000  35.3100000
  34.0330000  19.4850000  32.8640000  33.2210000  18.8110000  35.0840000
  33.8550000  19.5860000  31.4890000  32.4660000  19.2350000  29.4680000
  30.0170000  17.1940000  36.1420000  32.2400000  18.2540000  35.9140000
  34.8390000  19.8060000  33.2530000  34.0340000  19.1280000  35.4560000
  34.8510000  20.1720000  30.6260000  31.6660000  18.9290000  29.0560000
  33.4450000  19.7860000  28.7060000  30.1960000  17.0930000  37.5170000
  29.2120000  16.8730000  35.7530000  32.3960000  18.1340000  37.3060000
  34.6530000  20.2690000  29.2910000  35.6600000  20.4960000  31.0020000
  33.3240000  19.8510000  27.7660000  29.2000000  16.5070000  38.3800000
  31.4200000  17.5690000  38.1160000  33.1970000  18.4520000  37.7070000
  35.3210000  20.6600000  28.7410000  29.3980000  16.4100000  39.7150000
  28.3900000  16.1830000  38.0050000  31.5840000  17.4440000  39.5380000
  30.6050000  16.8930000  40.3000000  28.7290000  16.0180000  40.2650000
  32.3840000  17.7500000  39.9500000  30.7260000  16.8280000  41.2410000
  32.9760000  25.9320000  35.9140000  33.1320000  25.8130000  37.3060000
  33.9570000  26.4900000  35.0840000  31.7450000  25.4440000  35.3100000
  33.9340000  26.1310000  37.7070000  32.1560000  25.2480000  38.1160000
  34.7700000  26.8070000  35.4560000  33.7780000  26.5920000  33.6960000
  30.7530000  24.8730000  36.1420000  31.5660000  25.5460000  33.9230000
  30.9320000  24.7720000  37.5170000  32.3200000  25.1220000  39.5380000
  34.7690000  27.1630000  32.8640000  32.5470000  26.1040000  33.0920000
  29.9480000  24.5520000  35.7530000  30.7520000  25.2290000  33.5500000
  29.9360000  24.1860000  38.3800000  33.1200000  25.4290000  39.9500000
  31.3410000  24.5710000  40.3000000  34.5910000  27.2640000  31.4890000
  35.5750000  27.4840000  33.2530000  32.3900000  26.2230000  31.7000000
  30.1340000  24.0890000  39.7150000  29.1260000  23.8620000  38.0050000
  31.4620000  24.5060000  41.2410000  35.5870000  27.8500000  30.6260000
  33.3660000  26.7880000  30.8900000  31.5890000  25.9050000  31.3000000
  29.4650000  23.6970000  40.2650000  35.3890000  27.9470000  29.2910000
  36.3970000  28.1740000  31.0020000  33.2020000  26.9140000  29.4680000
  34.1810000  27.4650000  28.7060000  36.0570000  28.3390000  28.7410000
  32.4030000  26.6070000  29.0560000  34.0600000  27.5300000  27.7660000
  33.0480000  29.3810000  47.1490000  32.8920000  29.5000000  45.7570000
  32.0670000  28.8230000  47.9790000  34.2790000  29.8680000  47.7530000
  32.0900000  29.1820000  45.3560000  33.8670000  30.0650000  44.9470000
  31.2530000  28.5060000  47.6070000  32.2460000  28.7210000  49.3670000
  35.2710000  30.4400000  46.9210000  34.4580000  29.7670000  49.1400000
  35.0920000  30.5410000  45.5460000  33.7040000  30.1900000  43.5250000
  31.2540000  28.1500000  50.1990000  33.4770000  29.2090000  49.9710000
  36.0760000  30.7610000  47.3100000  35.2720000  30.0840000  49.5130000
  36.0880000  31.1270000  44.6830000  32.9040000  29.8840000  43.1130000
  34.6830000  30.7420000  42.7630000  31.4330000  28.0490000  51.5740000
  30.4490000  27.8290000  49.8100000  33.6330000  29.0900000  51.3630000
  35.8900000  31.2240000  43.3480000  36.8980000  31.4510000  45.0580000
  34.5610000  30.8060000  41.8220000  30.4370000  27.4630000  52.4370000
  32.6580000  28.5250000  52.1730000  34.4350000  29.4070000  51.7630000
  36.5590000  31.6160000  42.7980000  30.6350000  27.3660000  53.7720000
  29.6270000  27.1390000  52.0610000  32.8210000  28.3990000  53.5950000
  31.8420000  27.8480000  54.3570000  29.9660000  26.9740000  54.3220000
  33.6210000  28.7060000  54.0070000  31.9640000  27.7830000  55.2970000
  34.0500000  35.9340000  75.2620000  33.8940000  36.0540000  73.8710000
  33.0690000  35.3770000  76.0930000  35.2810000  36.4220000  75.8670000
  33.0930000  35.7360000  73.4700000  34.8700000  36.6190000  73.0610000
  32.2560000  35.0600000  75.7200000  33.2490000  35.2750000  77.4800000
  36.2730000  36.9940000  75.0350000  35.4610000  36.3200000  77.2540000
  36.0950000  37.0950000  73.6600000  34.7060000  36.7440000  71.6380000
  32.2570000  34.7030000  78.3130000  34.4800000  35.7630000  78.0850000
  37.0790000  37.3150000  75.4240000  36.2740000  36.6370000  77.6270000
  37.0910000  37.6810000  72.7970000  33.9060000  36.4380000  71.2270000
  35.6850000  37.2950000  70.8770000  32.4350000  34.6020000  79.6870000
  31.4510000  34.3820000  77.9230000  34.6360000  35.6430000  79.4760000
  36.8930000  37.7780000  71.4610000  37.9000000  38.0050000  73.1720000
  35.5640000  37.3600000  69.9360000  31.4390000  34.0160000  80.5500000
  33.6600000  35.0780000  80.2860000  35.4370000  35.9610000  79.8770000
  37.5610000  38.1700000  70.9120000  31.6370000  33.9190000  81.8860000
  30.6300000  33.6920000  80.1750000  33.8240000  34.9530000  81.7090000
  32.8450000  34.4020000  82.4710000  30.9690000  33.5270000  82.4350000
  34.6240000  35.2590000  82.1210000  32.9660000  34.3370000  83.4110000
  33.2830000  33.7820000  33.0920000  33.1260000  33.9020000  31.7000000
  32.3020000  33.2250000  33.9230000  34.5140000  34.2700000  33.6960000
  32.3250000  33.5840000  31.3000000  34.1020000  34.4670000  30.8900000
  31.4880000  32.9080000  33.5500000  32.4810000  33.1230000  35.3100000
  35.5060000  34.8420000  32.8640000  34.6930000  34.1680000  35.0840000
  35.3270000  34.9430000  31.4890000  33.9390000  34.5920000  29.4680000
  31.4890000  32.5510000  36.1420000  33.7120000  33.6110000  35.9140000
  36.3110000  35.1630000  33.2530000  35.5070000  34.4850000  35.4560000
  36.3230000  35.5290000  30.6260000  33.1390000  34.2860000  29.0560000
  34.9170000  35.1430000  28.7060000  31.6680000  32.4500000  37.5170000
  30.6840000  32.2300000  35.7530000  33.8680000  33.4920000  37.3060000
  36.1250000  35.6260000  29.2910000  37.1330000  35.8530000  31.0020000
  34.7960000  35.2080000  27.7660000  30.6720000  31.8640000  38.3800000
  32.8920000  32.9260000  38.1160000  34.6700000  33.8090000  37.7070000
  36.7930000  36.0180000  28.7410000  30.8700000  31.7670000  39.7150000
  29.8620000  31.5410000  38.0050000  33.0560000  32.8010000  39.5380000
  32.0770000  32.2500000  40.3000000  30.2010000  31.3760000  40.2650000
  33.8560000  33.1070000  39.9500000  32.1980000  32.1850000  41.2410000
  34.7870000  43.6130000  75.2620000  34.6300000  43.7320000  73.8710000
  33.8050000  43.0550000  76.0930000  36.0170000  44.1010000  75.8670000
  33.8290000  43.4150000  73.4700000  35.6060000  44.2970000  73.0610000
  32.9920000  42.7380000  75.7200000  33.9850000  42.9530000  77.4800000
  37.0090000  44.6720000  75.0350000  36.1970000  43.9990000  77.2540000
  36.8310000  44.7730000  73.6600000  35.4420000  44.4230000  71.6380000
  32.9930000  42.3820000  78.3130000  35.2160000  43.4410000  78.0850000
  37.8150000  44.9930000  75.4240000  37.0100000  44.3160000  77.6270000
  37.8270000  45.3590000  72.7970000  34.6420000  44.1160000  71.2270000
  36.4210000  44.9740000  70.8770000  33.1720000  42.2810000  79.6870000
  32.1880000  42.0610000  77.9230000  35.3720000  43.3220000  79.4760000
  37.6290000  45.4560000  71.4610000  38.6360000  45.6830000  73.1720000
  36.3000000  45.0390000  69.9360000  32.1760000  41.6950000  80.5500000
  34.3960000  42.7570000  80.2860000  36.1730000  43.6400000  79.8770000
  38.2970000  45.8480000  70.9120000  32.3740000  41.5980000  81.8860000
  31.3660000  41.3710000  80.1750000  34.5600000  42.6320000  81.7090000
  33.5810000  42.0800000  82.4710000  31.7050000  41.2060000  82.4350000
  35.3600000  42.9380000  82.1210000  33.7020000  42.0160000  83.4110000
  34.0190000  41.4610000  33.0920000  33.8630000  41.5800000  31.7000000
  33.0380000  40.9040000  33.9230000  35.2500000  41.9490000  33.6960000
  33.0610000  41.2630000  31.3000000  34.8380000  42.1460000  30.8900000
  32.2240000  40.5860000  33.5500000  33.2170000  40.8020000  35.3100000
  36.2420000  42.5200000  32.8640000  35.4290000  41.8470000  35.0840000
  36.0630000  42.6210000  31.4890000  34.6750000  42.2710000  29.4680000
  32.2250000  40.2300000  36.1420000  34.4480000  41.2900000  35.9140000
  37.0470000  42.8420000  33.2530000  36.2430000  42.1640000  35.4560000
  37.0590000  43.2070000  30.6260000  33.8750000  41.9640000  29.0560000
  35.6540000  42.8220000  28.7060000  32.4040000  40.1290000  37.5170000
  31.4200000  39.9090000  35.7530000  34.6040000  41.1700000  37.3060000
  36.8610000  43.3050000  29.2910000  37.8690000  43.5310000  31.0020000
  35.5320000  42.8870000  27.7660000  31.4080000  39.5430000  38.3800000
  33.6280000  40.6050000  38.1160000  35.4060000  41.4880000  37.7070000
  37.5290000  43.6960000  28.7410000  31.6060000  39.4460000  39.7150000
  30.5980000  39.2190000  38.0050000  33.7920000  40.4800000  39.5380000
  32.8130000  39.9290000  40.3000000  30.9370000  39.0540000  40.2650000
  34.5920000  40.7860000  39.9500000  32.9340000  39.8640000  41.2410000
  33.0160000  34.9070000   4.9780000  32.8600000  35.0270000   3.5870000
  32.0350000  34.3500000   5.8090000  34.2470000  35.3950000   5.5830000
  32.0590000  34.7090000   3.1860000  33.8360000  35.5920000   2.7770000
  31.2220000  34.0330000   5.4360000  32.2150000  34.2480000   7.1960000
  35.2390000  35.9670000   4.7500000  34.4270000  35.2930000   6.9700000
  35.0600000  36.0680000   3.3760000  33.6720000  35.7170000   1.3540000
  31.2230000  33.6760000   8.0280000  33.4450000  34.7360000   7.8010000
  36.0440000  36.2880000   5.1400000  35.2400000  35.6100000   7.3430000
  36.0560000  36.6540000   2.5130000  32.8720000  35.4110000   0.9420000
  34.6510000  36.2680000   0.5920000  31.4010000  33.5750000   9.4030000
  30.4170000  33.3550000   7.6390000  33.6020000  34.6160000   9.1920000
  35.8590000  36.7510000   1.1770000  36.8660000  36.9780000   2.8880000
  34.5300000  36.3330000  -0.3480000  30.4050000  32.9890000  10.2660000
  32.6260000  34.0510000  10.0020000  34.4030000  34.9340000   9.5930000
  36.5270000  37.1430000   0.6280000  30.6030000  32.8920000  11.6020000
  29.5960000  32.6650000   9.8910000  32.7900000  33.9260000  11.4250000
  31.8110000  33.3750000  12.1860000  29.9350000  32.5010000  12.1510000
  33.5900000  34.2320000  11.8360000  31.9320000  33.3100000  13.1270000
  34.4890000  50.2640000   4.9780000  34.3320000  50.3840000   3.5870000
  33.5080000  49.7070000   5.8090000  35.7190000  50.7520000   5.5830000
  33.5310000  50.0660000   3.1860000  35.3080000  50.9490000   2.7770000
  32.6940000  49.3900000   5.4360000  33.6870000  49.6050000   7.1960000
  36.7110000  51.3240000   4.7500000  35.8990000  50.6500000   6.9700000
  36.5330000  51.4250000   3.3760000  35.1440000  51.0740000   1.3540000
  32.6950000  49.0340000   8.0280000  34.9180000  50.0930000   7.8010000
  37.5170000  51.6450000   5.1400000  36.7120000  50.9680000   7.3430000
  37.5290000  52.0110000   2.5130000  34.3450000  50.7680000   0.9420000
  36.1230000  51.6250000   0.5920000  32.8740000  48.9320000   9.4030000
  31.8900000  48.7120000   7.6390000  35.0740000  49.9740000   9.1920000
  37.3310000  52.1080000   1.1770000  38.3390000  52.3350000   2.8880000
  36.0020000  51.6900000  -0.3480000  31.8780000  48.3470000  10.2660000
  34.0980000  49.4080000  10.0020000  35.8760000  50.2910000   9.5930000
  37.9990000  52.5000000   0.6280000  32.0760000  48.2490000  11.6020000
  31.0680000  48.0230000   9.8910000  34.2620000  49.2830000  11.4250000
  33.2830000  48.7320000  12.1860000  31.4070000  47.8580000  12.1510000
  35.0620000  49.5900000  11.8360000  33.4040000  48.6670000  13.1270000
  35.2250000  57.9430000   4.9780000  35.0680000  58.0620000   3.5870000
  34.2440000  57.3860000   5.8090000  36.4560000  58.4310000   5.5830000
  34.2670000  57.7450000   3.1860000  36.0440000  58.6280000   2.7770000
  33.4300000  57.0680000   5.4360000  34.4230000  57.2840000   7.1960000
  37.4480000  59.0030000   4.7500000  36.6350000  58.3290000   6.9700000
  37.2690000  59.1040000   3.3760000  35.8800000  58.7530000   1.3540000
  33.4310000  56.7120000   8.0280000  35.6540000  57.7720000   7.8010000
  38.2530000  59.3240000   5.1400000  37.4480000  58.6460000   7.3430000
  38.2650000  59.6890000   2.5130000  35.0810000  58.4470000   0.9420000
  36.8590000  59.3040000   0.5920000  33.6100000  56.6110000   9.4030000
  32.6260000  56.3910000   7.6390000  35.8100000  57.6520000   9.1920000
  38.0670000  59.7870000   1.1770000  39.0750000  60.0130000   2.8880000
  36.7380000  59.3690000  -0.3480000  32.6140000  56.0250000  10.2660000
  34.8340000  57.0870000  10.0020000  36.6120000  57.9700000   9.5930000
  38.7350000  60.1780000   0.6280000  32.8120000  55.9280000  11.6020000
  31.8040000  55.7010000   9.8910000  34.9980000  56.9620000  11.4250000
  34.0190000  56.4110000  12.1860000  32.1430000  55.5360000  12.1510000
  35.7980000  57.2680000  11.8360000  34.1400000  56.3460000  13.1270000
  35.9610000  65.6220000   4.9780000  35.8040000  65.7410000   3.5870000
  34.9800000  65.0640000   5.8090000  37.1920000  66.1100000   5.5830000
  35.0030000  65.4230000   3.1860000  36.7800000  66.3060000   2.7770000
  34.1660000  64.7470000   5.4360000  35.1590000  64.9620000   7.1960000
  38.1840000  66.6810000   4.7500000  37.3710000  66.0080000   6.9700000
  38.0050000  66.7820000   3.3760000  36.6170000  66.4320000   1.3540000
  34.1670000  64.3910000   8.0280000  36.3900000  65.4500000   7.8010000
  38.9890000  67.0020000   5.1400000  38.1850000  66.3250000   7.3430000
  39.0010000  67.3680000   2.5130000  35.8170000  66.1250000   0.9420000
  37.5960000  66.9830000   0.5920000  34.3460000  64.2900000   9.4030000
  33.3620000  64.0700000   7.6390000  36.5460000  65.3310000   9.1920000
  38.8030000  67.4650000   1.1770000  39.8110000  67.6920000   2.8880000
  37.4740000  67.0480000  -0.3480000  33.3500000  63.7040000  10.2660000
  35.5700000  64.7660000  10.0020000  37.3480000  65.6480000   9.5930000
  39.4710000  67.8570000   0.6280000  33.5480000  63.6070000  11.6020000
  32.5400000  63.3800000   9.8910000  35.7340000  64.6400000  11.4250000
  34.7550000  64.0890000  12.1860000  32.8790000  63.2150000  12.1510000
  36.5340000  64.9470000  11.8360000  34.8760000  64.0240000  13.1270000
  36.6970000  73.3000000   4.9780000  36.5410000  73.4200000   3.5870000
  35.7160000  72.7430000   5.8090000  37.9280000  73.7880000   5.5830000
  35.7390000  73.1020000   3.1860000  37.5170000  73.9850000   2.7770000
  34.9020000  72.4260000   5.4360000  35.8950000  72.6410000   7.1960000
  38.9200000  74.3600000   4.7500000  38.1070000  73.6860000   6.9700000
  38.7410000  74.4610000   3.3760000  37.3530000  74.1100000   1.3540000
  34.9030000  72.0690000   8.0280000  37.1260000  73.1290000   7.8010000
  39.7250000  74.6810000   5.1400000  38.9210000  74.0030000   7.3430000
  39.7370000  75.0470000   2.5130000  36.5530000  73.8040000   0.9420000
  38.3320000  74.6610000   0.5920000  35.0820000  71.9680000   9.4030000
  34.0980000  71.7480000   7.6390000  37.2820000  73.0090000   9.1920000
  39.5390000  75.1440000   1.1770000  40.5470000  75.3710000   2.8880000
  38.2110000  74.7260000  -0.3480000  34.0860000  71.3820000  10.2660000
  36.3070000  72.4440000  10.0020000  38.0840000  73.3270000   9.5930000
  40.2080000  75.5360000   0.6280000  34.2840000  71.2850000  11.6020000
  33.2760000  71.0580000   9.8910000  36.4700000  72.3190000  11.4250000
  35.4910000  71.7680000  12.1860000  33.6160000  70.8930000  12.1510000
  37.2700000  72.6250000  11.8360000  35.6130000  71.7030000  13.1270000
  37.4330000  80.9790000   4.9780000  37.2770000  81.0980000   3.5870000
  36.4520000  80.4210000   5.8090000  38.6640000  81.4670000   5.5830000
  36.4750000  80.7810000   3.1860000  38.2530000  81.6630000   2.7770000
  35.6380000  80.1040000   5.4360000  36.6310000  80.3200000   7.1960000
  39.6560000  82.0380000   4.7500000  38.8430000  81.3650000   6.9700000
  39.4770000  82.1390000   3.3760000  38.0890000  81.7890000   1.3540000
  35.6390000  79.7480000   8.0280000  37.8620000  80.8070000   7.8010000
  40.4610000  82.3590000   5.1400000  39.6570000  81.6820000   7.3430000
  40.4730000  82.7250000   2.5130000  37.2890000  81.4820000   0.9420000
  39.0680000  82.3400000   0.5920000  35.8180000  79.6470000   9.4030000
  34.8340000  79.4270000   7.6390000  38.0190000  80.6880000   9.1920000
  40.2750000  82.8220000   1.1770000  41.2830000  83.0490000   2.8880000
  38.9470000  82.4050000  -0.3480000  34.8220000  79.0610000  10.2660000
  37.0430000  80.1230000  10.0020000  38.8200000  81.0060000   9.5930000
  40.9440000  83.2140000   0.6280000  35.0200000  78.9640000  11.6020000
  34.0120000  78.7370000   9.8910000  37.2060000  79.9980000  11.4250000
  36.2280000  79.4460000  12.1860000  34.3520000  78.5720000  12.1510000
  38.0060000  80.3040000  11.8360000  36.3490000  79.3820000  13.1270000
  33.0800000  23.8540000  89.3190000  32.9230000  23.9730000  87.9270000
  32.0980000  23.2970000  90.1500000  34.3100000  24.3420000  89.9230000
  32.1220000  23.6560000  87.5270000  33.8990000  24.5390000  87.1180000
  31.2850000  22.9790000  89.7770000  32.2780000  23.1950000  91.5370000
  35.3020000  24.9130000  89.0910000  34.4900000  24.2400000  91.3110000
  35.1240000  25.0140000  87.7170000  33.7350000  24.6640000  85.6950000
  31.2860000  22.6230000  92.3690000  33.5090000  23.6830000  92.1420000
  36.1080000  25.2340000  89.4810000  35.3030000  24.5570000  91.6830000
  36.1200000  25.6000000  86.8530000  32.9350000  24.3570000  85.2830000
  34.7140000  25.2150000  84.9330000  31.4650000  22.5220000  93.7440000
  30.4810000  22.3020000  91.9800000  33.6650000  23.5630000  93.5330000
  35.9220000  25.6980000  85.5180000  36.9290000  25.9240000  87.2290000
  34.5930000  25.2800000  83.9930000  30.4680000  21.9360000  94.6070000
  32.6890000  22.9980000  94.3430000  34.4660000  23.8810000  93.9340000
  36.5900000  26.0890000  84.9680000  30.6660000  21.8390000  95.9430000
  29.6590000  21.6120000  94.2320000  32.8530000  22.8730000  95.7650000
  31.8740000  22.3210000  96.5270000  29.9980000  21.4470000  96.4920000
  33.6530000  23.1790000  96.1770000  31.9950000  22.2570000  97.4680000
  31.5760000  14.0230000  47.1490000  31.4190000  14.1430000  45.7570000
  30.5950000  13.4660000  47.9790000  32.8070000  14.5110000  47.7530000
  30.6180000  13.8250000  45.3560000  32.3950000  14.7080000  44.9470000
  29.7810000  13.1490000  47.6070000  30.7740000  13.3640000  49.3670000
  33.7980000  15.0830000  46.9210000  32.9860000  14.4090000  49.1400000
  33.6200000  15.1840000  45.5460000  32.2310000  14.8330000  43.5250000
  29.7820000  12.7920000  50.1990000  32.0050000  13.8520000  49.9710000
  34.6040000  15.4040000  47.3100000  33.7990000  14.7270000  49.5130000
  34.6160000  15.7700000  44.6830000  31.4320000  14.5270000  43.1130000
  33.2100000  15.3840000  42.7630000  29.9610000  12.6910000  51.5740000
  28.9770000  12.4710000  49.8100000  32.1610000  13.7330000  51.3630000
  34.4180000  15.8670000  43.3480000  35.4260000  16.0940000  45.0580000
  33.0890000  15.4490000  41.8220000  28.9650000  12.1060000  52.4370000
  31.1850000  13.1670000  52.1730000  32.9630000  14.0500000  51.7630000
  35.0860000  16.2590000  42.7980000  29.1630000  12.0080000  53.7720000
  28.1550000  11.7820000  52.0610000  31.3490000  13.0420000  53.5950000
  30.3700000  12.4910000  54.3570000  28.4940000  11.6170000  54.3220000
  32.1490000  13.3480000  54.0070000  30.4910000  12.4260000  55.2970000
  32.3120000  21.7020000  47.1490000  32.1550000  21.8210000  45.7570000
  31.3310000  21.1450000  47.9790000  33.5430000  22.1900000  47.7530000
  31.3540000  21.5040000  45.3560000  33.1310000  22.3870000  44.9470000
  30.5170000  20.8270000  47.6070000  31.5100000  21.0430000  49.3670000
  34.5350000  22.7610000  46.9210000  33.7220000  22.0880000  49.1400000
  34.3560000  22.8630000  45.5460000  32.9680000  22.5120000  43.5250000
  30.5180000  20.4710000  50.1990000  32.7410000  21.5310000  49.9710000
  35.3400000  23.0830000  47.3100000  34.5360000  22.4050000  49.5130000
  35.3520000  23.4480000  44.6830000  32.1680000  22.2050000  43.1130000
  33.9460000  23.0630000  42.7630000  30.6970000  20.3700000  51.5740000
  29.7130000  20.1500000  49.8100000  32.8970000  21.4110000  51.3630000
  35.1540000  23.5460000  43.3480000  36.1620000  23.7720000  45.0580000
  33.8250000  23.1280000  41.8220000  29.7010000  19.7840000  52.4370000
  31.9210000  20.8460000  52.1730000  33.6990000  21.7290000  51.7630000
  35.8220000  23.9370000  42.7980000  29.8990000  19.6870000  53.7720000
  28.8910000  19.4600000  52.0610000  32.0850000  20.7210000  53.5950000
  31.1060000  20.1700000  54.3570000  29.2300000  19.2950000  54.3220000
  32.8850000  21.0270000  54.0070000  31.2270000  20.1050000  55.2970000
  33.7430000  28.0840000  78.0850000  33.9000000  27.9650000  79.4760000
  34.7250000  28.6420000  77.2540000  32.5130000  27.5960000  77.4800000
  34.7010000  28.2820000  79.8770000  32.9240000  27.4000000  80.2860000
  35.5380000  28.9590000  77.6270000  34.5450000  28.7440000  75.8670000
  31.5210000  27.0250000  78.3130000  32.3330000  27.6980000  76.0930000
  31.6990000  26.9240000  79.6870000  33.0880000  27.2740000  81.7090000
  35.5370000  29.3150000  75.0350000  33.3140000  28.2560000  75.2620000
  30.7150000  26.7040000  77.9230000  31.5200000  27.3810000  75.7200000
  30.7030000  26.3380000  80.5500000  33.8880000  27.5810000  82.1210000
  32.1090000  26.7230000  82.4710000  35.3580000  29.4160000  73.6600000
  36.3420000  29.6360000  75.4240000  33.1580000  28.3750000  73.8710000
  30.9010000  26.2410000  81.8860000  29.8940000  26.0140000  80.1750000
  32.2300000  26.6580000  83.4110000  36.3540000  30.0020000  72.7970000
  34.1340000  28.9400000  73.0610000  32.3570000  28.0570000  73.4700000
  30.2330000  25.8490000  82.4350000  36.1560000  30.0990000  71.4610000
  37.1640000  30.3260000  73.1720000  33.9700000  29.0660000  71.6380000
  34.9490000  29.6170000  70.8770000  36.8250000  30.4910000  70.9120000
  33.1700000  28.7590000  71.2270000  34.8280000  29.6820000  69.9360000
  33.8160000  31.5320000  89.3190000  33.6590000  31.6520000  87.9270000
  32.8340000  30.9750000  90.1500000  35.0460000  32.0200000  89.9230000
  32.8580000  31.3340000  87.5270000  34.6350000  32.2170000  87.1180000
  32.0210000  30.6580000  89.7770000  33.0140000  30.8730000  91.5370000
  36.0380000  32.5920000  89.0910000  35.2260000  31.9180000  91.3110000
  35.8600000  32.6930000  87.7170000  34.4710000  32.3420000  85.6950000
  32.0220000  30.3020000  92.3690000  34.2450000  31.3610000  92.1420000
  36.8440000  32.9130000  89.4810000  36.0390000  32.2360000  91.6830000
  36.8560000  33.2790000  86.8530000  33.6720000  32.0360000  85.2830000
  35.4500000  32.8930000  84.9330000  32.2010000  30.2000000  93.7440000
  31.2170000  29.9800000  91.9800000  34.4010000  31.2420000  93.5330000
  36.6580000  33.3760000  85.5180000  37.6660000  33.6030000  87.2290000
  35.3290000  32.9580000  83.9930000  31.2050000  29.6150000  94.6070000
  33.4250000  30.6760000  94.3430000  35.2020000  31.5590000  93.9340000
  37.3260000  33.7680000  84.9680000  31.4030000  29.5170000  95.9430000
  30.3950000  29.2910000  94.2320000  33.5890000  30.5510000  95.7650000
  32.6100000  30.0000000  96.5270000  30.7340000  29.1260000  96.4920000
  34.3890000  30.8580000  96.1770000  32.7310000  29.9350000  97.4680000
  33.7840000  37.0590000  47.1490000  33.6280000  37.1790000  45.7570000
  32.8030000  36.5020000  47.9790000  35.0150000  37.5470000  47.7530000
  32.8260000  36.8610000  45.3560000  34.6040000  37.7440000  44.9470000
  31.9890000  36.1850000  47.6070000  32.9820000  36.4000000  49.3670000
  36.0070000  38.1190000  46.9210000  35.1940000  37.4450000  49.1400000
  35.8280000  38.2200000  45.5460000  34.4400000  37.8690000  43.5250000
  31.9900000  35.8280000  50.1990000  34.2130000  36.8880000  49.9710000
  36.8120000  38.4400000  47.3100000  36.0080000  37.7620000  49.5130000
  36.8240000  38.8060000  44.6830000  33.6400000  37.5630000  43.1130000
  35.4190000  38.4200000  42.7630000  32.1690000  35.7270000  51.5740000
  31.1850000  35.5070000  49.8100000  34.3700000  36.7680000  51.3630000
  36.6260000  38.9030000  43.3480000  37.6340000  39.1300000  45.0580000
  35.2980000  38.4850000  41.8220000  31.1730000  35.1410000  52.4370000
  33.3940000  36.2030000  52.1730000  35.1710000  37.0860000  51.7630000
  37.2950000  39.2950000  42.7980000  31.3710000  35.0440000  53.7720000
  30.3630000  34.8170000  52.0610000  33.5570000  36.0780000  53.5950000
  32.5780000  35.5270000  54.3570000  30.7030000  34.6520000  54.3220000
  34.3570000  36.3840000  54.0070000  32.7000000  35.4620000  55.2970000
  35.2880000  46.8900000  89.3190000  35.1310000  47.0090000  87.9270000
  34.3070000  46.3320000  90.1500000  36.5190000  47.3780000  89.9230000
  34.3300000  46.6910000  87.5270000  36.1070000  47.5740000  87.1180000
  33.4930000  46.0150000  89.7770000  34.4860000  46.2300000  91.5370000
  37.5110000  47.9490000  89.0910000  36.6980000  47.2760000  91.3110000
  37.3320000  48.0500000  87.7170000  35.9440000  47.7000000  85.6950000
  33.4940000  45.6590000  92.3690000  35.7170000  46.7180000  92.1420000
  38.3160000  48.2700000  89.4810000  37.5120000  47.5930000  91.6830000
  38.3280000  48.6360000  86.8530000  35.1440000  47.3930000  85.2830000
  36.9230000  48.2510000  84.9330000  33.6730000  45.5580000  93.7440000
  32.6890000  45.3380000  91.9800000  35.8730000  46.5990000  93.5330000
  38.1300000  48.7330000  85.5180000  39.1380000  48.9600000  87.2290000
  36.8010000  48.3160000  83.9930000  32.6770000  44.9720000  94.6070000
  34.8970000  46.0340000  94.3430000  36.6750000  46.9160000  93.9340000
  38.7980000  49.1250000  84.9680000  32.8750000  44.8750000  95.9430000
  31.8670000  44.6480000  94.2320000  35.0610000  45.9080000  95.7650000
  34.0820000  45.3570000  96.5270000  32.2060000  44.4830000  96.4920000
  35.8610000  46.2150000  96.1770000  34.2030000  45.2920000  97.4680000
  33.5180000  38.1840000  19.0350000  33.3610000  38.3030000  17.6430000
  32.5370000  37.6270000  19.8660000  34.7490000  38.6720000  19.6390000
  32.5600000  37.9860000  17.2430000  34.3370000  38.8690000  16.8340000
  31.7230000  37.3100000  19.4930000  32.7160000  37.5250000  21.2530000
  35.7400000  39.2440000  18.8070000  34.9280000  38.5700000  21.0270000
  35.5620000  39.3450000  17.4320000  34.1730000  38.9940000  15.4110000
  31.7240000  36.9530000  22.0850000  33.9470000  38.0130000  21.8580000
  36.5460000  39.5650000  19.1970000  35.7410000  38.8870000  21.3990000
  36.5580000  39.9310000  16.5690000  33.3740000  38.6880000  14.9990000
  35.1520000  39.5450000  14.6490000  31.9030000  36.8520000  23.4600000
  30.9190000  36.6320000  21.6960000  34.1030000  37.8930000  23.2490000
  36.3600000  40.0280000  15.2340000  37.3680000  40.2550000  16.9450000
  35.0310000  39.6100000  13.7090000  30.9070000  36.2660000  24.3230000
  33.1270000  37.3280000  24.0590000  34.9050000  38.2110000  23.6500000
  37.0280000  40.4190000  14.6840000  31.1050000  36.1690000  25.6590000
  30.0970000  35.9420000  23.9480000  33.2910000  37.2030000  25.4810000
  32.3120000  36.6520000  26.2430000  30.4360000  35.7770000  26.2080000
  34.0910000  37.5090000  25.8930000  32.4330000  36.5870000  27.1840000
  34.5200000  44.7380000  47.1490000  34.3640000  44.8570000  45.7570000
  33.5390000  44.1800000  47.9790000  35.7510000  45.2260000  47.7530000
  33.5620000  44.5400000  45.3560000  35.3400000  45.4220000  44.9470000
  32.7260000  43.8630000  47.6070000  33.7180000  44.0780000  49.3670000
  36.7430000  45.7970000  46.9210000  35.9300000  45.1240000  49.1400000
  36.5640000  45.8980000  45.5460000  35.1760000  45.5480000  43.5250000
  32.7270000  43.5070000  50.1990000  34.9490000  44.5660000  49.9710000
  37.5480000  46.1180000  47.3100000  36.7440000  45.4410000  49.5130000
  37.5600000  46.4840000  44.6830000  34.3760000  45.2410000  43.1130000
  36.1550000  46.0990000  42.7630000  32.9050000  43.4060000  51.5740000
  31.9210000  43.1860000  49.8100000  35.1060000  44.4470000  51.3630000
  37.3620000  46.5810000  43.3480000  38.3700000  46.8080000  45.0580000
  36.0340000  46.1640000  41.8220000  31.9090000  42.8200000  52.4370000
  34.1300000  43.8820000  52.1730000  35.9070000  44.7650000  51.7630000
  38.0310000  46.9730000  42.7980000  32.1070000  42.7230000  53.7720000
  31.0990000  42.4960000  52.0610000  34.2940000  43.7560000  53.5950000
  33.3150000  43.2050000  54.3570000  31.4390000  42.3310000  54.3220000
  35.0930000  44.0630000  54.0070000  33.4360000  43.1400000  55.2970000
  36.4530000  54.3970000  92.1420000  36.6090000  54.2770000  93.5330000
  37.4340000  54.9540000  91.3110000  35.2220000  53.9090000  91.5370000
  37.4110000  54.5950000  93.9340000  35.6340000  53.7120000  94.3430000
  38.2480000  55.2710000  91.6830000  37.2550000  55.0560000  89.9230000
  34.2300000  53.3370000  92.3690000  35.0430000  54.0110000  90.1500000
  34.4090000  53.2360000  93.7440000  35.7970000  53.5870000  95.7650000
  38.2470000  55.6280000  89.0910000  36.0240000  54.5680000  89.3190000
  33.4250000  53.0160000  91.9800000  34.2290000  53.6940000  89.7770000
  33.4130000  52.6500000  94.6070000  36.5970000  53.8930000  96.1770000
  34.8180000  53.0360000  96.5270000  38.0680000  55.7290000  87.7170000
  39.0520000  55.9490000  89.4810000  35.8680000  54.6880000  87.9270000
  33.6110000  52.5530000  95.9430000  32.6030000  52.3260000  94.2320000
  34.9400000  52.9710000  97.4680000  39.0640000  56.3150000  86.8530000
  36.8430000  55.2530000  87.1180000  35.0660000  54.3700000  87.5270000
  32.9430000  52.1620000  96.4920000  38.8660000  56.4120000  85.5180000
  39.8740000  56.6390000  87.2290000  36.6800000  55.3780000  85.6950000
  37.6590000  55.9290000  84.9330000  39.5350000  56.8040000  84.9680000
  35.8800000  55.0720000  85.2830000  37.5380000  55.9940000  83.9930000
  35.9520000  51.1200000  78.0850000  36.1080000  51.0010000  79.4760000
  36.9330000  51.6770000  77.2540000  34.7210000  50.6320000  77.4800000
  36.9100000  51.3180000  79.8770000  35.1320000  50.4350000  80.2860000
  37.7460000  51.9950000  77.6270000  36.7540000  51.7790000  75.8670000
  33.7290000  50.0610000  78.3130000  34.5420000  50.7340000  76.0930000
  33.9080000  49.9590000  79.6870000  35.2960000  50.3100000  81.7090000
  37.7450000  52.3510000  75.0350000  35.5230000  51.2910000  75.2620000
  32.9240000  49.7390000  77.9230000  33.7280000  50.4170000  75.7200000
  32.9120000  49.3740000  80.5500000  36.0960000  50.6170000  82.1210000
  34.3170000  49.7590000  82.4710000  37.5670000  52.4520000  73.6600000
  38.5510000  52.6720000  75.4240000  35.3660000  51.4110000  73.8710000
  33.1100000  49.2760000  81.8860000  32.1020000  49.0500000  80.1750000
  34.4380000  49.6940000  83.4110000  38.5630000  53.0380000  72.7970000
  36.3420000  51.9760000  73.0610000  34.5650000  51.0930000  73.4700000
  32.4410000  48.8850000  82.4350000  38.3650000  53.1350000  71.4610000
  39.3730000  53.3620000  73.1720000  36.1780000  52.1010000  71.6380000
  37.1570000  52.6520000  70.8770000  39.0330000  53.5270000  70.9120000
  35.3790000  51.7950000  71.2270000  37.0360000  52.7170000  69.9360000
  36.7600000  62.2470000  89.3190000  36.6040000  62.3660000  87.9270000
  35.7790000  61.6890000  90.1500000  37.9910000  62.7350000  89.9230000
  35.8020000  62.0490000  87.5270000  37.5800000  62.9320000  87.1180000
  34.9650000  61.3720000  89.7770000  35.9580000  61.5880000  91.5370000
  38.9830000  63.3060000  89.0910000  38.1700000  62.6330000  91.3110000
  38.8040000  63.4070000  87.7170000  37.4160000  63.0570000  85.6950000
  34.9660000  61.0160000  92.3690000  37.1890000  62.0760000  92.1420000
  39.7880000  63.6270000  89.4810000  38.9840000  62.9500000  91.6830000
  39.8000000  63.9930000  86.8530000  36.6160000  62.7500000  85.2830000
  38.3950000  63.6080000  84.9330000  35.1450000  60.9150000  93.7440000
  34.1610000  60.6950000  91.9800000  37.3460000  61.9560000  93.5330000
  39.6020000  64.0900000  85.5180000  40.6100000  64.3170000  87.2290000
  38.2740000  63.6730000  83.9930000  34.1490000  60.3290000  94.6070000
  36.3700000  61.3910000  94.3430000  38.1470000  62.2740000  93.9340000
  40.2710000  64.4820000  84.9680000  34.3470000  60.2320000  95.9430000
  33.3390000  60.0050000  94.2320000  36.5330000  61.2660000  95.7650000
  35.5550000  60.7140000  96.5270000  33.6790000  59.8400000  96.4920000
  37.3330000  61.5720000  96.1770000  35.6760000  60.6500000  97.4680000
  35.9920000  60.0950000  47.1490000  35.8360000  60.2140000  45.7570000
  35.0110000  59.5380000  47.9790000  37.2230000  60.5830000  47.7530000
  35.0350000  59.8970000  45.3560000  36.8120000  60.7800000  44.9470000
  34.1980000  59.2200000  47.6070000  35.1910000  59.4360000  49.3670000
  38.2150000  61.1540000  46.9210000  37.4030000  60.4810000  49.1400000
  38.0370000  61.2560000  45.5460000  36.6480000  60.9050000  43.5250000
  34.1990000  58.8640000  50.1990000  36.4210000  59.9240000  49.9710000
  39.0200000  61.4760000  47.3100000  38.2160000  60.7980000  49.5130000
  39.0330000  61.8410000  44.6830000  35.8480000  60.5980000  43.1130000
  37.6270000  61.4560000  42.7630000  34.3770000  58.7630000  51.5740000
  33.3930000  58.5430000  49.8100000  36.5780000  59.8040000  51.3630000
  38.8350000  61.9390000  43.3480000  39.8420000  62.1650000  45.0580000
  37.5060000  61.5210000  41.8220000  33.3810000  58.1770000  52.4370000
  35.6020000  59.2390000  52.1730000  37.3790000  60.1220000  51.7630000
  39.5030000  62.3300000  42.7980000  33.5790000  58.0800000  53.7720000
  32.5720000  57.8530000  52.0610000  35.7660000  59.1140000  53.5950000
  34.7870000  58.5630000  54.3570000  32.9110000  57.6880000  54.3220000
  36.5660000  59.4200000  54.0070000  34.9080000  58.4980000  55.2970000
  35.4910000  56.8180000  33.0920000  35.3350000  56.9370000  31.7000000
  34.5100000  56.2610000  33.9230000  36.7220000  57.3060000  33.6960000
  34.5330000  56.6200000  31.3000000  36.3110000  57.5030000  30.8900000
  33.6970000  55.9440000  33.5500000  34.6890000  56.1590000  35.3100000
  37.7140000  57.8780000  32.8640000  36.9010000  57.2040000  35.0840000
  37.5350000  57.9790000  31.4890000  36.1470000  57.6280000  29.4680000
  33.6970000  55.5870000  36.1420000  35.9200000  56.6470000  35.9140000
  38.5190000  58.1990000  33.2530000  37.7150000  57.5210000  35.4560000
  38.5310000  58.5650000  30.6260000  35.3470000  57.3220000  29.0560000
  37.1260000  58.1790000  28.7060000  33.8760000  55.4860000  37.5170000
  32.8920000  55.2660000  35.7530000  36.0770000  56.5270000  37.3060000
  38.3330000  58.6620000  29.2910000  39.3410000  58.8890000  31.0020000
  37.0050000  58.2440000  27.7660000  32.8800000  54.9000000  38.3800000
  35.1010000  55.9620000  38.1160000  36.8780000  56.8450000  37.7070000
  39.0020000  59.0530000  28.7410000  33.0780000  54.8030000  39.7150000
  32.0700000  54.5760000  38.0050000  35.2650000  55.8370000  39.5380000
  34.2860000  55.2860000  40.3000000  32.4100000  54.4110000  40.2650000
  36.0640000  56.1430000  39.9500000  34.4070000  55.2210000  41.2410000
  37.9250000  69.7540000  92.1420000  38.0820000  69.6350000  93.5330000
  38.9060000  70.3110000  91.3110000  36.6940000  69.2660000  91.5370000
  38.8830000  69.9520000  93.9340000  37.1060000  69.0690000  94.3430000
  39.7200000  70.6290000  91.6830000  38.7270000  70.4130000  89.9230000
  35.7030000  68.6950000  92.3690000  36.5150000  69.3680000  90.1500000
  35.8810000  68.5930000  93.7440000  37.2700000  68.9440000  95.7650000
  39.7190000  70.9850000  89.0910000  37.4960000  69.9250000  89.3190000
  34.8970000  68.3730000  91.9800000  35.7020000  69.0510000  89.7770000
  34.8850000  68.0080000  94.6070000  38.0690000  69.2510000  96.1770000
  36.2910000  68.3930000  96.5270000  39.5400000  71.0860000  87.7170000
  40.5240000  71.3060000  89.4810000  37.3400000  70.0450000  87.9270000
  35.0830000  67.9100000  95.9430000  34.0750000  67.6840000  94.2320000
  36.4120000  68.3280000  97.4680000  40.5360000  71.6720000  86.8530000
  38.3160000  70.6100000  87.1180000  36.5380000  69.7270000  87.5270000
  34.4150000  67.5190000  96.4920000  40.3380000  71.7690000  85.5180000
  41.3460000  71.9960000  87.2290000  38.1520000  70.7350000  85.6950000
  39.1310000  71.2860000  84.9330000  41.0070000  72.1610000  84.9680000
  37.3520000  70.4290000  85.2830000  39.0100000  71.3510000  83.9930000
  36.4620000  68.8980000  19.0350000  36.3060000  69.0180000  17.6430000
  35.4810000  68.3410000  19.8660000  37.6930000  69.3860000  19.6390000
  35.5040000  68.7000000  17.2430000  37.2820000  69.5830000  16.8340000
  34.6680000  68.0240000  19.4930000  35.6600000  68.2390000  21.2530000
  38.6850000  69.9580000  18.8070000  37.8720000  69.2840000  21.0270000
  38.5060000  70.0590000  17.4320000  37.1180000  69.7080000  15.4110000
  34.6680000  67.6680000  22.0850000  36.8910000  68.7270000  21.8580000
  39.4900000  70.2790000  19.1970000  38.6860000  69.6020000  21.3990000
  39.5020000  70.6450000  16.5690000  36.3180000  69.4020000  14.9990000
  38.0970000  70.2590000  14.6490000  34.8470000  67.5670000  23.4600000
  33.8630000  67.3460000  21.6960000  37.0480000  68.6080000  23.2490000
  39.3040000  70.7420000  15.2340000  40.3120000  70.9690000  16.9450000
  37.9760000  70.3240000  13.7090000  33.8510000  66.9810000  24.3230000
  36.0720000  68.0420000  24.0590000  37.8490000  68.9250000  23.6500000
  39.9730000  71.1340000  14.6840000  34.0490000  66.8830000  25.6590000
  33.0410000  66.6570000  23.9480000  36.2360000  67.9170000  25.4810000
  35.2570000  67.3660000  26.2430000  33.3810000  66.4920000  26.2080000
  37.0350000  68.2240000  25.8930000  35.3780000  67.3010000  27.1840000
  37.3920000  72.0040000  35.9140000  37.5490000  71.8850000  37.3060000
  38.3740000  72.5610000  35.0840000  36.1620000  71.5160000  35.3100000
  38.3500000  72.2020000  37.7070000  36.5730000  71.3190000  38.1160000
  39.1870000  72.8780000  35.4560000  38.1940000  72.6630000  33.6960000
  35.1700000  70.9440000  36.1420000  35.9820000  71.6180000  33.9230000
  35.3480000  70.8430000  37.5170000  36.7370000  71.1940000  39.5380000
  39.1860000  73.2350000  32.8640000  36.9630000  72.1750000  33.0920000
  34.3640000  70.6230000  35.7530000  35.1690000  71.3010000  33.5500000
  34.3520000  70.2570000  38.3800000  37.5370000  71.5000000  39.9500000
  35.7580000  70.6430000  40.3000000  39.0070000  73.3360000  31.4890000
  39.9910000  73.5560000  33.2530000  36.8070000  72.2950000  31.7000000
  34.5500000  70.1600000  39.7150000  33.5430000  69.9330000  38.0050000
  35.8790000  70.5780000  41.2410000  40.0030000  73.9220000  30.6260000
  37.7830000  72.8600000  30.8900000  36.0060000  71.9770000  31.3000000
  33.8820000  69.7690000  40.2650000  39.8060000  74.0190000  29.2910000
  40.8130000  74.2460000  31.0020000  37.6190000  72.9850000  29.4680000
  38.5980000  73.5360000  28.7060000  40.4740000  74.4110000  28.7410000
  36.8190000  72.6790000  29.0560000  38.4770000  73.6010000  27.7660000
  37.4650000  75.4520000  47.1490000  37.3080000  75.5720000  45.7570000
  36.4840000  74.8950000  47.9790000  38.6950000  75.9400000  47.7530000
  36.5070000  75.2540000  45.3560000  38.2840000  76.1370000  44.9470000
  35.6700000  74.5780000  47.6070000  36.6630000  74.7930000  49.3670000
  39.6870000  76.5120000  46.9210000  38.8750000  75.8380000  49.1400000
  39.5090000  76.6130000  45.5460000  38.1200000  76.2620000  43.5250000
  35.6710000  74.2210000  50.1990000  37.8940000  75.2810000  49.9710000
  40.4930000  76.8330000  47.3100000  39.6880000  76.1550000  49.5130000
  40.5050000  77.1990000  44.6830000  37.3210000  75.9560000  43.1130000
  39.0990000  76.8130000  42.7630000  35.8500000  74.1200000  51.5740000
  34.8660000  73.9000000  49.8100000  38.0500000  75.1610000  51.3630000
  40.3070000  77.2960000  43.3480000  41.3150000  77.5230000  45.0580000
  38.9780000  76.8780000  41.8220000  34.8540000  73.5340000  52.4370000
  37.0740000  74.5960000  52.1730000  38.8520000  75.4790000  51.7630000
  40.9750000  77.6870000  42.7980000  35.0520000  73.4370000  53.7720000
  34.0440000  73.2100000  52.0610000  37.2380000  74.4710000  53.5950000
  36.2590000  73.9200000  54.3570000  34.3830000  73.0450000  54.3220000
  38.0380000  74.7770000  54.0070000  36.3800000  73.8550000  55.2970000
  38.4670000  82.0060000  75.2620000  38.3110000  82.1250000  73.8710000
  37.4860000  81.4480000  76.0930000  39.6980000  82.4940000  75.8670000
  37.5090000  81.8080000  73.4700000  39.2870000  82.6900000  73.0610000
  36.6730000  81.1310000  75.7200000  37.6650000  81.3460000  77.4800000
  40.6900000  83.0650000  75.0350000  39.8770000  82.3920000  77.2540000
  40.5110000  83.1660000  73.6600000  39.1230000  82.8160000  71.6380000
  36.6740000  80.7750000  78.3130000  38.8960000  81.8340000  78.0850000
  41.4950000  83.3860000  75.4240000  40.6910000  82.7090000  77.6270000
  41.5070000  83.7520000  72.7970000  38.3230000  82.5090000  71.2270000
  40.1020000  83.3670000  70.8770000  36.8520000  80.6740000  79.6870000
  35.8680000  80.4540000  77.9230000  39.0530000  81.7150000  79.4760000
  41.3090000  83.8490000  71.4610000  42.3170000  84.0760000  73.1720000
  39.9810000  83.4320000  69.9360000  35.8560000  80.0880000  80.5500000
  38.0770000  81.1500000  80.2860000  39.8540000  82.0330000  79.8770000
  41.9780000  84.2410000  70.9120000  36.0540000  79.9910000  81.8860000
  35.0460000  79.7640000  80.1750000  38.2410000  81.0240000  81.7090000
  37.2620000  80.4730000  82.4710000  35.3860000  79.5990000  82.4350000
  39.0400000  81.3310000  82.1210000  37.3830000  80.4090000  83.4110000
  37.6270000  76.4060000  21.8580000  37.7840000  76.2860000  23.2490000
  38.6080000  76.9630000  21.0270000  36.3970000  75.9180000  21.2530000
  38.5850000  76.6040000  23.6500000  36.8080000  75.7210000  24.0590000
  39.4220000  77.2800000  21.3990000  38.4290000  77.0650000  19.6390000
  35.4050000  75.3460000  22.0850000  36.2170000  76.0200000  19.8660000
  35.5830000  75.2450000  23.4600000  36.9720000  75.5960000  25.4810000
  39.4210000  77.6370000  18.8070000  37.1980000  76.5770000  19.0350000
  34.5990000  75.0250000  21.6960000  35.4040000  75.7030000  19.4930000
  34.5870000  74.6590000  24.3230000  37.7710000  75.9020000  25.8930000
  35.9930000  75.0450000  26.2430000  39.2420000  77.7380000  17.4320000
  40.2260000  77.9580000  19.1970000  37.0420000  76.6960000  17.6430000
  34.7850000  74.5620000  25.6590000  33.7770000  74.3350000  23.9480000
  36.1140000  74.9800000  27.1840000  40.2380000  78.3240000  16.5690000
  38.0180000  77.2620000  16.8340000  36.2400000  76.3790000  17.2430000
  34.1170000  74.1700000  26.2080000  40.0400000  78.4210000  15.2340000
  41.0480000  78.6470000  16.9450000  37.8540000  77.3870000  15.4110000
  38.8330000  77.9380000  14.6490000  40.7090000  78.8120000  14.6840000
  37.0540000  77.0810000  14.9990000  38.7120000  78.0030000  13.7090000
  37.7000000  79.8540000  33.0920000  37.5430000  79.9730000  31.7000000
  36.7180000  79.2970000  33.9230000  38.9300000  80.3420000  33.6960000
  36.7420000  79.6560000  31.3000000  38.5190000  80.5390000  30.8900000
  35.9050000  78.9790000  33.5500000  36.8980000  79.1950000  35.3100000
  39.9220000  80.9130000  32.8640000  39.1100000  80.2400000  35.0840000
  39.7440000  81.0140000  31.4890000  38.3550000  80.6640000  29.4680000
  35.9060000  78.6230000  36.1420000  38.1290000  79.6830000  35.9140000
  40.7280000  81.2350000  33.2530000  39.9230000  80.5570000  35.4560000
  40.7400000  81.6000000  30.6260000  37.5550000  80.3570000  29.0560000
  39.3340000  81.2150000  28.7060000  36.0850000  78.5220000  37.5170000
  35.1010000  78.3020000  35.7530000  38.2850000  79.5630000  37.3060000
  40.5420000  81.6980000  29.2910000  41.5490000  81.9240000  31.0020000
  39.2130000  81.2800000  27.7660000  35.0890000  77.9360000  38.3800000
  37.3090000  78.9980000  38.1160000  39.0860000  79.8810000  37.7070000
  41.2100000  82.0890000  28.7410000  35.2860000  77.8390000  39.7150000
  34.2790000  77.6120000  38.0050000  37.4730000  78.8730000  39.5380000
  36.4940000  78.3210000  40.3000000  34.6180000  77.4470000  40.2650000
  38.2730000  79.1790000  39.9500000  36.6150000  78.2570000  41.2410000
  38.2010000  83.1310000  47.1490000  38.0440000  83.2500000  45.7570000
  37.2200000  82.5730000  47.9790000  39.4320000  83.6190000  47.7530000
  37.2430000  82.9320000  45.3560000  39.0200000  83.8150000  44.9470000
  36.4060000  82.2560000  47.6070000  37.3990000  82.4710000  49.3670000
  40.4240000  84.1900000  46.9210000  39.6110000  83.5170000  49.1400000
  40.2450000  84.2910000  45.5460000  38.8560000  83.9410000  43.5250000
  36.4070000  81.9000000  50.1990000  38.6300000  82.9590000  49.9710000
  41.2290000  84.5110000  47.3100000  40.4250000  83.8340000  49.5130000
  41.2410000  84.8770000  44.6830000  38.0570000  83.6340000  43.1130000
  39.8350000  84.4920000  42.7630000  36.5860000  81.7990000  51.5740000
  35.6020000  81.5790000  49.8100000  38.7860000  82.8400000  51.3630000
  41.0430000  84.9740000  43.3480000  42.0510000  85.2010000  45.0580000
  39.7140000  84.5570000  41.8220000  35.5900000  81.2130000  52.4370000
  37.8100000  82.2750000  52.1730000  39.5880000  83.1580000  51.7630000
  41.7110000  85.3660000  42.7980000  35.7880000  81.1160000  53.7720000
  34.7800000  80.8890000  52.0610000  37.9740000  82.1490000  53.5950000
  36.9950000  81.5980000  54.3570000  35.1190000  80.7240000  54.3220000
  38.7740000  82.4560000  54.0070000  37.1160000  81.5330000  55.2970000
  38.7020000  86.4080000  61.2050000  38.5460000  86.5270000  59.8140000
  37.7210000  85.8500000  62.0360000  39.9330000  86.8950000  61.8100000
  37.7440000  86.2090000  59.4130000  39.5220000  87.0920000  59.0040000
  36.9070000  85.5330000  61.6640000  37.9000000  85.7480000  63.4240000
  40.9250000  87.4670000  60.9780000  40.1120000  86.7940000  63.1970000
  40.7460000  87.5680000  59.6030000  39.3580000  87.2170000  57.5820000
  36.9080000  85.1770000  64.2560000  39.1310000  86.2360000  64.0280000
  41.7300000  87.7880000  61.3670000  40.9260000  87.1110000  63.5700000
  41.7420000  88.1540000  58.7400000  38.5580000  86.9110000  57.1700000
  40.3370000  87.7690000  56.8200000  37.0870000  85.0760000  65.6300000
  36.1030000  84.8560000  63.8660000  39.2880000  86.1170000  65.4200000
  41.5440000  88.2510000  57.4040000  42.5520000  88.4780000  59.1150000
  40.2160000  87.8330000  55.8790000  36.0910000  84.4900000  66.4940000
  38.3120000  85.5520000  66.2290000  40.0890000  86.4340000  65.8200000
  42.2130000  88.6430000  56.8550000  36.2890000  84.3930000  67.8290000
  35.2810000  84.1660000  66.1180000  38.4750000  85.4260000  67.6520000
  37.4960000  84.8750000  68.4140000  35.6210000  84.0010000  68.3790000
  39.2750000  85.7330000  68.0640000  37.6180000  84.8100000  69.3540000
  39.6320000  89.5130000  78.0850000  39.7890000  89.3940000  79.4760000
  40.6140000  90.0700000  77.2540000  38.4020000  89.0250000  77.4800000
  40.5900000  89.7110000  79.8770000  38.8130000  88.8280000  80.2860000
  41.4270000  90.3880000  77.6270000  40.4340000  90.1720000  75.8670000
  37.4100000  88.4540000  78.3130000  38.2220000  89.1270000  76.0930000
  37.5880000  88.3520000  79.6870000  38.9770000  88.7030000  81.7090000
  41.4260000  90.7440000  75.0350000  39.2030000  89.6840000  75.2620000
  36.6040000  88.1320000  77.9230000  37.4090000  88.8100000  75.7200000
  36.5920000  87.7670000  80.5500000  39.7770000  89.0090000  82.1210000
  37.9980000  88.1520000  82.4710000  41.2470000  90.8450000  73.6600000
  42.2310000  91.0650000  75.4240000  39.0470000  89.8040000  73.8710000
  36.7900000  87.6690000  81.8860000  35.7820000  87.4430000  80.1750000
  38.1190000  88.0870000  83.4110000  42.2430000  91.4310000  72.7970000
  40.0230000  90.3690000  73.0610000  38.2460000  89.4860000  73.4700000
  36.1220000  87.2780000  82.4350000  42.0450000  91.5280000  71.4610000
  43.0530000  91.7550000  73.1720000  39.8590000  90.4940000  71.6380000
  40.8380000  91.0450000  70.8770000  42.7140000  91.9200000  70.9120000
  39.0590000  90.1880000  71.2270000  40.7170000  91.1100000  69.9360000
  39.7050000  92.9610000  89.3190000  39.5480000  93.0810000  87.9270000
  38.7230000  92.4040000  90.1500000  40.9350000  93.4490000  89.9230000
  38.7470000  92.7630000  87.5270000  40.5240000  93.6460000  87.1180000
  37.9100000  92.0870000  89.7770000  38.9030000  92.3020000  91.5370000
  41.9270000  94.0210000  89.0910000  41.1150000  93.3470000  91.3110000
  41.7490000  94.1220000  87.7170000  40.3600000  93.7710000  85.6950000
  37.9110000  91.7300000  92.3690000  40.1340000  92.7900000  92.1420000
  42.7330000  94.3420000  89.4810000  41.9280000  93.6640000  91.6830000
  42.7450000  94.7080000  86.8530000  39.5600000  93.4650000  85.2830000
  41.3390000  94.3220000  84.9330000  38.0900000  91.6290000  93.7440000
  37.1060000  91.4090000  91.9800000  40.2900000  92.6700000  93.5330000
  42.5470000  94.8050000  85.5180000  43.5540000  95.0320000  87.2290000
  41.2180000  94.3870000  83.9930000  37.0940000  91.0430000  94.6070000
  39.3140000  92.1050000  94.3430000  41.0910000  92.9880000  93.9340000
  43.2150000  95.1970000  84.9680000  37.2920000  90.9460000  95.9430000
  36.2840000  90.7190000  94.2320000  39.4780000  91.9800000  95.7650000
  38.4990000  91.4290000  96.5270000  36.6230000  90.5540000  96.4920000
  40.2780000  92.2860000  96.1770000  38.6200000  91.3640000  97.4680000
  38.3630000  84.0840000  21.8580000  38.5200000  83.9650000  23.2490000
  39.3450000  84.6420000  21.0270000  37.1330000  83.5960000  21.2530000
  39.3210000  84.2830000  23.6500000  37.5440000  83.4000000  24.0590000
  40.1580000  84.9590000  21.3990000  39.1650000  84.7440000  19.6390000
  36.1410000  83.0250000  22.0850000  36.9530000  83.6980000  19.8660000
  36.3190000  82.9240000  23.4600000  37.7080000  83.2740000  25.4810000
  40.1570000  85.3150000  18.8070000  37.9340000  84.2560000  19.0350000
  35.3350000  82.7040000  21.6960000  36.1400000  83.3810000  19.4930000
  35.3230000  82.3380000  24.3230000  38.5080000  83.5810000  25.8930000
  36.7290000  82.7230000  26.2430000  39.9780000  85.4160000  17.4320000
  40.9620000  85.6360000  19.1970000  37.7780000  84.3750000  17.6430000
  35.5210000  82.2410000  25.6590000  34.5140000  82.0140000  23.9480000
  36.8500000  82.6580000  27.1840000  40.9740000  86.0020000  16.5690000
  38.7540000  84.9400000  16.8340000  36.9770000  84.0570000  17.2430000
  34.8530000  81.8490000  26.2080000  40.7760000  86.0990000  15.2340000
  41.7840000  86.3260000  16.9450000  38.5900000  85.0660000  15.4110000
  39.5690000  85.6170000  14.6490000  41.4450000  86.4910000  14.6840000
  37.7900000  84.7590000  14.9990000  39.4480000  85.6820000  13.7090000
  38.4360000  87.5320000  33.0920000  38.2790000  87.6520000  31.7000000
  37.4550000  86.9750000  33.9230000  39.6660000  88.0200000  33.6960000
  37.4780000  87.3340000  31.3000000  39.2550000  88.2170000  30.8900000
  36.6410000  86.6580000  33.5500000  37.6340000  86.8730000  35.3100000
  40.6580000  88.5920000  32.8640000  39.8460000  87.9180000  35.0840000
  40.4800000  88.6930000  31.4890000  39.0910000  88.3420000  29.4680000
  36.6420000  86.3020000  36.1420000  38.8650000  87.3610000  35.9140000
  41.4640000  88.9130000  33.2530000  40.6590000  88.2360000  35.4560000
  41.4760000  89.2790000  30.6260000  38.2920000  88.0360000  29.0560000
  40.0700000  88.8940000  28.7060000  36.8210000  86.2010000  37.5170000
  35.8370000  85.9800000  35.7530000  39.0210000  87.2420000  37.3060000
  41.2780000  89.3760000  29.2910000  42.2860000  89.6030000  31.0020000
  39.9490000  88.9580000  27.7660000  35.8250000  85.6150000  38.3800000
  38.0450000  86.6760000  38.1160000  39.8220000  87.5590000  37.7070000
  41.9460000  89.7680000  28.7410000  36.0230000  85.5170000  39.7150000
  35.0150000  85.2910000  38.0050000  38.2090000  86.5510000  39.5380000
  37.2300000  86.0000000  40.3000000  35.3540000  85.1260000  40.2650000
  39.0090000  86.8580000  39.9500000  37.3510000  85.9350000  41.2410000
  39.8670000  93.9150000  64.0280000  40.0240000  93.7950000  65.4200000
  40.8480000  94.4720000  63.1970000  38.6360000  93.4270000  63.4240000
  40.8250000  94.1130000  65.8200000  39.0480000  93.2300000  66.2290000
  41.6620000  94.7890000  63.5700000  40.6690000  94.5740000  61.8100000
  37.6440000  92.8550000  64.2560000  38.4570000  93.5290000  62.0360000
  37.8230000  92.7540000  65.6300000  39.2120000  93.1050000  67.6520000
  41.6610000  95.1460000  60.9780000  39.4380000  94.0860000  61.2050000
  36.8390000  92.5340000  63.8660000  37.6440000  93.2120000  61.6640000
  36.8270000  92.1680000  66.4940000  40.0110000  93.4110000  68.0640000
  38.2330000  92.5540000  68.4140000  41.4820000  95.2470000  59.6030000
  42.4660000  95.4670000  61.3670000  39.2820000  94.2060000  59.8140000
  37.0250000  92.0710000  67.8290000  36.0170000  91.8440000  66.1180000
  38.3540000  92.4890000  69.3540000  42.4780000  95.8330000  58.7400000
  40.2580000  94.7710000  59.0040000  38.4800000  93.8880000  59.4130000
  36.3570000  91.6790000  68.3790000  42.2800000  95.9300000  57.4040000
  43.2880000  96.1570000  59.1150000  40.0940000  94.8960000  57.5820000
  41.0730000  95.4470000  56.8200000  42.9490000  96.3220000  56.8550000
  39.2940000  94.5900000  57.1700000  40.9520000  95.5120000  55.8790000
  39.9390000  97.3630000  75.2620000  39.7830000  97.4820000  73.8710000
  38.9580000  96.8060000  76.0930000  41.1700000  97.8510000  75.8670000
  38.9820000  97.1650000  73.4700000  40.7590000  98.0480000  73.0610000
  38.1450000  96.4880000  75.7200000  39.1380000  96.7040000  77.4800000
  42.1620000  98.4220000  75.0350000  41.3500000  97.7490000  77.2540000
  41.9840000  98.5240000  73.6600000  40.5950000  98.1730000  71.6380000
  38.1460000  96.1320000  78.3130000  40.3680000  97.1920000  78.0850000
  42.9670000  98.7440000  75.4240000  42.1630000  98.0660000  77.6270000
  42.9800000  99.1090000  72.7970000  39.7950000  97.8670000  71.2270000
  41.5740000  98.7240000  70.8770000  38.3240000  96.0310000  79.6870000
  37.3400000  95.8110000  77.9230000  40.5250000  97.0720000  79.4760000
  42.7820000  99.2070000  71.4610000  43.7890000  99.4330000  73.1720000
  41.4530000  98.7890000  69.9360000  37.3280000  95.4450000  80.5500000
  39.5490000  96.5070000  80.2860000  41.3260000  97.3900000  79.8770000
  43.4500000  99.5980000  70.9120000  37.5260000  95.3480000  81.8860000
  36.5190000  95.1210000  80.1750000  39.7130000  96.3820000  81.7090000
  38.7340000  95.8310000  82.4710000  36.8580000  94.9560000  82.4350000
  40.5130000  96.6880000  82.1210000  38.8550000  95.7660000  83.4110000
  40.4410000 100.6400000  89.3190000  40.2840000 100.7590000  87.9270000
  39.4600000 100.0820000  90.1500000  41.6720000 101.1280000  89.9230000
  39.4830000 100.4420000  87.5270000  41.2600000 101.3240000  87.1180000
  38.6460000  99.7650000  89.7770000  39.6390000  99.9810000  91.5370000
  42.6630000 101.6990000  89.0910000  41.8510000 101.0260000  91.3110000
  42.4850000 101.8000000  87.7170000  41.0960000 101.4500000  85.6950000
  38.6470000  99.4090000  92.3690000  40.8700000 100.4680000  92.1420000
  43.4690000 102.0200000  89.4810000  42.6640000 101.3430000  91.6830000
  43.4810000 102.3860000  86.8530000  40.2970000 101.1430000  85.2830000
  42.0750000 102.0010000  84.9330000  38.8260000  99.3080000  93.7440000
  37.8420000  99.0880000  91.9800000  41.0260000 100.3490000  93.5330000
  43.2830000 102.4830000  85.5180000  44.2910000 102.7100000  87.2290000
  41.9540000 102.0660000  83.9930000  37.8300000  98.7220000  94.6070000
  40.0500000  99.7840000  94.3430000  41.8280000 100.6670000  93.9340000
  43.9510000 102.8750000  84.9680000  38.0280000  98.6250000  95.9430000
  37.0200000  98.3980000  94.2320000  40.2140000  99.6590000  95.7650000
  39.2350000  99.1070000  96.5270000  37.3590000  98.2330000  96.4920000
  41.0140000  99.9650000  96.1770000  39.3560000  99.0430000  97.4680000
  38.9370000  90.8090000  47.1490000  38.7800000  90.9290000  45.7570000
  37.9560000  90.2520000  47.9790000  40.1680000  91.2970000  47.7530000
  37.9790000  90.6110000  45.3560000  39.7560000  91.4940000  44.9470000
  37.1420000  89.9350000  47.6070000  38.1350000  90.1500000  49.3670000
  41.1600000  91.8690000  46.9210000  40.3470000  91.1950000  49.1400000
  40.9810000  91.9700000  45.5460000  39.5930000  91.6190000  43.5250000
  37.1430000  89.5780000  50.1990000  39.3660000  90.6380000  49.9710000
  41.9650000  92.1900000  47.3100000  41.1610000  91.5120000  49.5130000
  41.9770000  92.5560000  44.6830000  38.7930000  91.3130000  43.1130000
  40.5720000  92.1700000  42.7630000  37.3220000  89.4770000  51.5740000
  36.3380000  89.2570000  49.8100000  39.5220000  90.5190000  51.3630000
  41.7790000  92.6530000  43.3480000  42.7870000  92.8800000  45.0580000
  40.4500000  92.2350000  41.8220000  36.3260000  88.8920000  52.4370000
  38.5460000  89.9530000  52.1730000  40.3240000  90.8360000  51.7630000
  42.4470000  93.0450000  42.7980000  36.5240000  88.7940000  53.7720000
  35.5160000  88.5680000  52.0610000  38.7100000  89.8280000  53.5950000
  37.7310000  89.2770000  54.3570000  35.8550000  88.4030000  54.3220000
  39.5100000  90.1340000  54.0070000  37.8520000  89.2120000  55.2970000
  37.9660000  78.7290000  61.2050000  37.8100000  78.8480000  59.8140000
  36.9850000  78.1720000  62.0360000  39.1970000  79.2170000  61.8100000
  37.0080000  78.5310000  59.4130000  38.7850000  79.4140000  59.0040000
  36.1710000  77.8540000  61.6640000  37.1640000  78.0700000  63.4240000
  40.1890000  79.7880000  60.9780000  39.3760000  79.1150000  63.1970000
  40.0100000  79.8900000  59.6030000  38.6220000  79.5390000  57.5820000
  36.1720000  77.4980000  64.2560000  38.3950000  78.5580000  64.0280000
  40.9940000  80.1100000  61.3670000  40.1900000  79.4320000  63.5700000
  41.0060000  80.4750000  58.7400000  37.8220000  79.2320000  57.1700000
  39.6010000  80.0900000  56.8200000  36.3510000  77.3970000  65.6300000
  35.3670000  77.1770000  63.8660000  38.5510000  78.4380000  65.4200000
  40.8080000  80.5730000  57.4040000  41.8160000  80.7990000  59.1150000
  39.4790000  80.1550000  55.8790000  35.3550000  76.8110000  66.4940000
  37.5750000  77.8730000  66.2290000  39.3530000  78.7560000  65.8200000
  41.4760000  80.9640000  56.8550000  35.5530000  76.7140000  67.8290000
  34.5450000  76.4870000  66.1180000  37.7390000  77.7480000  67.6520000
  36.7600000  77.1970000  68.4140000  34.8840000  76.3220000  68.3790000
  38.5390000  78.0540000  68.0640000  36.8810000  77.1320000  69.3540000
  41.4350000  88.7110000  19.2220000  41.2650000  89.3880000  17.9980000
  40.4590000  88.7160000  20.2260000  42.6790000  87.9820000  19.4540000
  40.4640000  89.8760000  17.8460000  42.2370000  89.3610000  17.0080000
  39.6460000  89.1890000  20.0950000  40.6300000  88.0360000  21.4390000
  43.6640000  87.9770000  18.4350000  42.8500000  87.3020000  20.6670000
  43.4680000  88.6370000  17.2340000  42.0650000  90.0210000  15.7540000
  39.6460000  88.0410000  22.4580000  41.8740000  87.3070000  21.6710000
  44.4780000  87.5100000  18.5800000  43.6640000  86.8300000  20.7980000
  44.4520000  88.6200000  16.1970000  41.2630000  90.5020000  15.5880000
  43.0230000  89.9780000  14.7950000  39.8410000  87.3820000  23.6580000
  38.8310000  88.5090000  22.3130000  42.0450000  86.6300000  22.8950000
  44.2410000  89.2630000  15.0250000  45.2670000  88.1510000  16.3330000
  42.8850000  90.4230000  13.9670000  38.8570000  87.3990000  24.6960000
  41.0720000  86.6580000  23.8850000  42.8460000  86.1430000  23.0470000
  44.9080000  89.2400000  14.3480000  39.0680000  86.7550000  25.8680000
  38.0420000  87.8680000  24.5590000  41.2440000  85.9980000  25.1380000
  40.2860000  86.0410000  26.0970000  38.4020000  86.7790000  26.5440000
  42.0460000  85.5170000  25.3040000  40.4250000  85.5960000  26.9250000
  43.8790000 100.4150000  77.8980000  44.0500000  99.7380000  79.1220000
  44.8550000 100.4090000  76.8940000  42.6350000 101.1440000  77.6660000
  44.8510000  99.2500000  79.2740000  43.0770000  99.7650000  80.1120000
  45.6690000  99.9370000  77.0250000  44.6840000 101.0900000  75.6810000
  41.6510000 101.1490000  78.6850000  42.4640000 101.8240000  76.4530000
  41.8460000 100.4890000  79.8860000  43.2490000  99.1050000  81.3660000
  45.6690000 101.0850000  74.6620000  43.4400000 101.8190000  75.4490000
  40.8360000 101.6160000  78.5400000  41.6510000 102.2960000  76.3220000
  40.8620000 100.5060000  80.9230000  44.0510000  98.6240000  81.5320000
  42.2910000  99.1480000  82.3240000  45.4730000 101.7440000  73.4620000
  46.4830000 100.6170000  74.8070000  43.2700000 102.4950000  74.2250000
  41.0730000  99.8630000  82.0950000  40.0470000 100.9750000  80.7870000
  42.4300000  98.7030000  83.1520000  46.4570000 101.7270000  72.4240000
  44.2420000 102.4680000  73.2350000  42.4690000 102.9830000  74.0730000
  40.4070000  99.8860000  82.7710000  46.2460000 102.3710000  71.2520000
  47.2720000 101.2580000  72.5610000  44.0710000 103.1280000  71.9810000
  45.0280000 103.0850000  71.0230000  46.9130000 102.3470000  70.5760000
  43.2680000 103.6090000  71.8150000  44.8900000 103.5300000  70.1950000
  42.3750000  90.5840000  35.7270000  42.5460000  89.9070000  36.9520000
  43.3510000  90.5790000  34.7240000  41.1310000  91.3130000  35.4960000
  43.3470000  89.4200000  37.1040000  41.5730000  89.9350000  37.9410000
  44.1650000  90.1060000  34.8550000  43.1810000  91.2590000  33.5110000
  40.1470000  91.3180000  36.5150000  40.9610000  91.9930000  34.2820000
  40.3430000  90.6590000  37.7150000  41.7450000  89.2750000  39.1950000
  44.1650000  91.2540000  32.4920000  41.9360000  91.9880000  33.2790000
  39.3330000  91.7860000  36.3700000  40.1470000  92.4660000  34.1520000
  39.3580000  90.6760000  38.7520000  42.5480000  88.7940000  39.3610000
  40.7870000  89.3180000  40.1540000  43.9690000  91.9130000  31.2910000
  44.9790000  90.7860000  32.6360000  41.7660000  92.6650000  32.0540000
  39.5690000  90.0320000  39.9250000  38.5440000  91.1450000  38.6160000
  40.9260000  88.8730000  40.9820000  44.9530000  91.8960000  30.2540000
  42.7390000  92.6380000  31.0650000  40.9650000  93.1520000  31.9030000
  38.9030000  90.0550000  40.6010000  44.7420000  92.5400000  29.0810000
  45.7680000  91.4280000  30.3900000  42.5670000  93.2980000  29.8110000
  43.5240000  93.2540000  28.8520000  45.4090000  92.5170000  28.4050000
  41.7640000  93.7790000  29.6450000  43.3860000  93.7000000  28.0240000
  40.9340000  85.4340000   5.1650000  40.7630000  86.1110000   3.9410000
  39.9580000  85.4400000   6.1690000  42.1780000  84.7050000   5.3970000
  39.9620000  86.5990000   3.7890000  41.7360000  86.0840000   2.9510000
  39.1440000  85.9120000   6.0380000  40.1290000  84.7600000   7.3820000
  43.1620000  84.7000000   4.3780000  42.3490000  84.0250000   6.6100000
  42.9670000  85.3600000   3.1770000  41.5640000  86.7440000   1.6970000
  39.1440000  84.7640000   8.4010000  41.3730000  84.0300000   7.6140000
  43.9770000  84.2330000   4.5230000  43.1620000  83.5530000   6.7410000
  43.9510000  85.3430000   2.1400000  40.7620000  87.2250000   1.5310000
  42.5220000  86.7010000   0.7390000  39.3400000  84.1050000   9.6010000
  38.3300000  85.2320000   8.2560000  41.5430000  83.3540000   8.8380000
  43.7400000  85.9860000   0.9680000  44.7660000  84.8740000   2.2760000
  42.3830000  87.1460000  -0.0890000  38.3560000  84.1220000  10.6390000
  40.5710000  83.3810000   9.8280000  42.3440000  82.8660000   8.9900000
  44.4060000  85.9630000   0.2920000  38.5670000  83.4780000  11.8110000
  37.5410000  84.5910000  10.5020000  40.7420000  82.7210000  11.0820000
  39.7850000  82.7640000  12.0400000  37.9000000  83.5020000  12.4870000
  41.5450000  82.2400000  11.2470000  39.9230000  82.3190000  12.8680000
  43.3780000  97.1380000  63.8410000  43.5480000  96.4610000  65.0650000
  44.3540000  97.1330000  62.8370000  42.1340000  97.8670000  63.6090000
  44.3490000  95.9730000  65.2170000  42.5760000  96.4880000  66.0550000
  45.1670000  96.6600000  62.9680000  44.1830000  97.8130000  61.6240000
  41.1490000  97.8720000  64.6280000  41.9630000  98.5470000  62.3960000
  41.3450000  97.2130000  65.8290000  42.7480000  95.8280000  67.3090000
  45.1670000  97.8080000  60.6050000  42.9390000  98.5420000  61.3920000
  40.3350000  98.3390000  64.4830000  41.1500000  99.0190000  62.2650000
  40.3610000  97.2290000  66.8660000  43.5500000  95.3470000  67.4750000
  41.7900000  95.8710000  68.2680000  44.9720000  98.4670000  59.4050000
  45.9820000  97.3400000  60.7500000  42.7690000  99.2190000  60.1680000
  40.5720000  96.5860000  68.0380000  39.5460000  97.6980000  66.7300000
  41.9280000  95.4260000  69.0960000  45.9560000  98.4500000  58.3670000
  43.7410000  99.1910000  59.1780000  41.9670000  99.7060000  60.0160000
  39.9060000  96.6090000  68.7150000  45.7450000  99.0940000  57.1950000
  46.7710000  97.9810000  58.5040000  43.5690000  99.8510000  57.9250000
  44.5270000  99.8080000  56.9660000  46.4110000  99.0700000  56.5190000
  42.7670000 100.3320000  57.7590000  44.3890000 100.2530000  56.1380000
  44.3800000 103.6910000  91.9550000  44.5510000 103.0150000  93.1790000
  45.3560000 103.6860000  90.9510000  43.1360000 104.4210000  91.7230000
  45.3520000 102.5270000  93.3310000  43.5780000 103.0420000  94.1690000
  46.1700000 103.2140000  91.0820000  45.1860000 104.3660000  89.7380000
  42.1520000 104.4250000  92.7420000  42.9660000 105.1010000  90.5100000
  42.3480000 103.7660000  93.9420000  43.7500000 102.3820000  95.4230000
  46.1700000 104.3610000  88.7190000  43.9410000 105.0950000  89.5060000
  41.3380000 104.8930000  92.5970000  42.1520000 105.5730000  90.3790000
  41.3630000 103.7830000  94.9800000  44.5530000 101.9010000  95.5880000
  42.7920000 102.4250000  96.3810000  45.9740000 105.0210000  87.5180000
  46.9840000 103.8940000  88.8640000  43.7710000 105.7720000  88.2820000
  41.5750000 103.1390000  96.1520000  40.5490000 104.2520000  94.8430000
  42.9310000 101.9800000  97.2090000  46.9590000 105.0040000  86.4810000
  44.7440000 105.7450000  87.2920000  42.9700000 106.2600000  88.1300000
  40.9080000 103.1630000  96.8280000  46.7470000 105.6470000  85.3090000
  47.7730000 104.5350000  86.6170000  44.5720000 106.4050000  86.0380000
  45.5290000 106.3620000  85.0800000  47.4140000 105.6240000  84.6320000
  43.7690000 106.8860000  85.8720000  45.3910000 106.8070000  84.2520000
  37.5510000  40.3900000  75.4490000  37.3810000  41.0670000  74.2250000
  36.5760000  40.3950000  76.4530000  38.7950000  39.6610000  75.6810000
  36.5800000  41.5540000  74.0730000  38.3530000  41.0390000  73.2350000
  35.7620000  40.8680000  76.3220000  36.7460000  39.7150000  77.6660000
  39.7800000  39.6560000  74.6620000  38.9660000  38.9810000  76.8940000
  39.5840000  40.3150000  73.4620000  38.1820000  41.6990000  71.9810000
  35.7620000  39.7200000  78.6850000  37.9900000  38.9860000  77.8980000
  40.5940000  39.1880000  74.8070000  39.7800000  38.5080000  77.0250000
  40.5680000  40.2980000  72.4240000  37.3790000  42.1800000  71.8150000
  39.1390000  41.6560000  71.0230000  35.9570000  39.0610000  79.8860000
  34.9470000  40.1870000  78.5400000  38.1610000  38.3090000  79.1220000
  40.3570000  40.9420000  71.2520000  41.3830000  39.8290000  72.5610000
  39.0010000  42.1010000  70.1950000  34.9730000  39.0770000  80.9230000
  37.1880000  38.3360000  80.1120000  38.9620000  37.8220000  79.2740000
  41.0240000  40.9190000  70.5760000  35.1840000  38.4340000  82.0950000
  34.1580000  39.5460000  80.7870000  37.3600000  37.6760000  81.3660000
  36.4020000  37.7190000  82.3240000  34.5180000  38.4570000  82.7710000
  38.1620000  37.1950000  81.5320000  36.5410000  37.2740000  83.1520000
  36.5490000  33.8360000  47.3360000  36.3780000  34.5130000  46.1110000
  35.5730000  33.8410000  48.3390000  37.7930000  33.1070000  47.5670000
  35.5770000  35.0000000  45.9590000  37.3510000  34.4860000  45.1220000
  34.7590000  34.3140000  48.2080000  35.7440000  33.1610000  49.5520000
  38.7770000  33.1020000  46.5480000  37.9630000  32.4270000  48.7810000
  38.5820000  33.7610000  45.3480000  37.1790000  35.1460000  43.8680000
  34.7590000  33.1660000  50.5710000  36.9880000  32.4320000  49.7840000
  39.5920000  32.6340000  46.6930000  38.7770000  31.9540000  48.9110000
  39.5660000  33.7450000  44.3110000  36.3760000  35.6270000  43.7020000
  38.1370000  35.1030000  42.9090000  34.9550000  32.5070000  51.7720000
  33.9450000  33.6340000  50.4270000  37.1580000  31.7550000  51.0090000
  39.3550000  34.3880000  43.1380000  40.3800000  33.2760000  44.4470000
  37.9980000  35.5480000  42.0810000  33.9710000  32.5240000  52.8090000
  36.1860000  31.7830000  51.9980000  37.9590000  31.2680000  51.1600000
  40.0210000  34.3650000  42.4620000  34.1820000  31.8800000  53.9820000
  33.1560000  32.9930000  52.6730000  36.3570000  31.1230000  53.2520000
  35.4000000  31.1660000  54.2110000  33.5150000  31.9030000  54.6580000
  37.1600000  30.6420000  53.4180000  35.5380000  30.7210000  55.0390000
  37.0500000  37.1130000  61.3920000  36.8800000  37.7900000  60.1680000
  36.0740000  37.1180000  62.3960000  38.2940000  36.3840000  61.6240000
  36.0780000  38.2770000  60.0160000  37.8520000  37.7630000  59.1780000
  35.2610000  37.5910000  62.2650000  36.2450000  36.4380000  63.6090000
  39.2780000  36.3790000  60.6050000  38.4650000  35.7040000  62.8370000
  39.0830000  37.0380000  59.4050000  37.6800000  38.4220000  57.9250000
  35.2600000  36.4430000  64.6280000  37.4890000  35.7090000  63.8410000
  40.0930000  35.9110000  60.7500000  39.2780000  35.2310000  62.9680000
  40.0670000  37.0210000  58.3670000  36.8780000  38.9040000  57.7590000
  38.6380000  38.3790000  56.9660000  35.4560000  35.7840000  65.8290000
  34.4460000  36.9110000  64.4830000  37.6590000  35.0320000  65.0650000
  39.8560000  37.6650000  57.1950000  40.8820000  36.5530000  58.5040000
  38.5000000  38.8240000  56.1380000  34.4720000  35.8010000  66.8660000
  36.6870000  35.0590000  66.0550000  38.4610000  34.5450000  65.2170000
  40.5220000  37.6420000  56.5190000  34.6830000  35.1570000  68.0380000
  33.6570000  36.2690000  66.7300000  36.8590000  34.4000000  67.3090000
  35.9010000  34.4430000  68.2680000  34.0170000  35.1800000  68.7150000
  37.6610000  33.9180000  67.4750000  36.0390000  33.9980000  69.0960000
  42.8770000  93.8610000  49.7840000  43.0470000  93.1840000  51.0090000
  43.8520000  93.8560000  48.7810000  41.6330000  94.5900000  49.5520000
  43.8480000  92.6970000  51.1600000  42.0740000  93.2110000  51.9980000
  44.6660000  93.3830000  48.9110000  43.6820000  94.5360000  47.5670000
  40.6480000  94.5950000  50.5710000  41.4620000  95.2700000  48.3390000
  40.8440000  93.9360000  51.7720000  42.2460000  92.5520000  53.2520000
  44.6660000  94.5310000  46.5480000  42.4380000  95.2650000  47.3360000
  39.8340000  95.0630000  50.4270000  40.6480000  95.7430000  48.2080000
  39.8600000  93.9530000  52.8090000  43.0490000  92.0700000  53.4180000
  41.2890000  92.5950000  54.2110000  44.4710000  95.1900000  45.3480000
  45.4800000  94.0630000  46.6930000  42.2670000  95.9420000  46.1110000
  40.0710000  93.3090000  53.9820000  39.0450000  94.4210000  52.6730000
  41.4270000  92.1490000  55.0390000  45.4550000  95.1730000  44.3110000
  43.2400000  95.9140000  45.1220000  41.4660000  96.4290000  45.9590000
  39.4040000  93.3320000  54.6580000  45.2440000  95.8170000  43.1380000
  46.2690000  94.7040000  44.4470000  43.0680000  96.5740000  43.8680000
  44.0260000  96.5310000  42.9090000  45.9100000  95.7940000  42.4620000
  42.2650000  97.0560000  43.7020000  43.8870000  96.9760000  42.0810000
  34.5130000  10.5210000  21.6710000  34.6830000   9.8450000  22.8950000
  35.4890000  10.5160000  20.6670000  33.2690000  11.2500000  21.4390000
  35.4850000   9.3570000  23.0470000  33.7110000   9.8720000  23.8850000
  36.3020000  10.0440000  20.7980000  35.3180000  11.1960000  19.4540000
  32.2840000  11.2550000  22.4580000  33.0980000  11.9310000  20.2260000
  32.4800000  10.5960000  23.6580000  33.8830000   9.2120000  25.1380000
  36.3020000  11.1910000  18.4350000  34.0740000  11.9250000  19.2220000
  31.4700000  11.7230000  22.3130000  32.2850000  12.4030000  20.0950000
  31.4960000  10.6130000  24.6960000  34.6850000   8.7310000  25.3040000
  32.9250000   9.2550000  26.0970000  36.1070000  11.8510000  17.2340000
  37.1170000  10.7240000  18.5800000  33.9040000  12.6020000  17.9980000
  31.7070000   9.9690000  25.8680000  30.6810000  11.0820000  24.5590000
  33.0630000   8.8100000  26.9250000  37.0910000  11.8340000  16.1970000
  34.8760000  12.5750000  17.0080000  33.1020000  13.0900000  17.8460000
  31.0410000   9.9930000  26.5440000  36.8800000  12.4770000  15.0250000
  37.9060000  11.3650000  16.3330000  34.7040000  13.2350000  15.7540000
  35.6620000  13.1920000  14.7950000  37.5460000  12.4540000  14.3480000
  33.9020000  13.7160000  15.5880000  35.5240000  13.6370000  13.9670000
  34.0120000   7.2440000   7.6140000  34.1820000   6.5680000   8.8380000
  34.9870000   7.2390000   6.6100000  32.7680000   7.9740000   7.3820000
  34.9830000   6.0800000   8.9900000  33.2090000   6.5950000   9.8280000
  35.8010000   6.7670000   6.7410000  34.8170000   7.9190000   5.3970000
  31.7830000   7.9780000   8.4010000  32.5970000   8.6540000   6.1690000
  31.9790000   7.3190000   9.6010000  33.3810000   5.9350000  11.0820000
  35.8010000   7.9140000   4.3780000  33.5730000   8.6490000   5.1650000
  30.9690000   8.4460000   8.2560000  31.7830000   9.1260000   6.0380000
  30.9950000   7.3360000  10.6390000  34.1840000   5.4540000  11.2470000
  32.4240000   5.9780000  12.0400000  35.6060000   8.5740000   3.1770000
  36.6150000   7.4470000   4.5230000  33.4020000   9.3250000   3.9410000
  31.2060000   6.6930000  11.8110000  30.1800000   7.8050000  10.5020000
  32.5620000   5.5330000  12.8680000  36.5900000   8.5570000   2.1400000
  34.3750000   9.2980000   2.9510000  32.6010000   9.8130000   3.7890000
  30.5390000   6.7160000  12.4870000  36.3790000   9.2000000   0.9680000
  37.4040000   8.0880000   2.2760000  34.2030000   9.9580000   1.6970000
  35.1610000   9.9150000   0.7390000  37.0450000   9.1770000   0.2920000
  33.4000000  10.4390000   1.5310000  35.0220000  10.3600000  -0.0890000
  36.0170000  20.3520000  63.8410000  36.1870000  19.6750000  65.0650000
  36.9920000  20.3470000  62.8370000  34.7730000  21.0810000  63.6090000
  36.9880000  19.1880000  65.2170000  35.2150000  19.7020000  66.0550000
  37.8060000  19.8740000  62.9680000  36.8220000  21.0270000  61.6240000
  33.7880000  21.0860000  64.6280000  34.6020000  21.7610000  62.3960000
  33.9840000  20.4270000  65.8290000  35.3860000  19.0420000  67.3090000
  37.8060000  21.0220000  60.6050000  35.5780000  21.7560000  61.3920000
  32.9740000  21.5530000  64.4830000  33.7880000  22.2330000  62.2650000
  33.0000000  20.4430000  66.8660000  36.1890000  18.5610000  67.4750000
  34.4290000  19.0850000  68.2680000  37.6110000  21.6810000  59.4050000
  38.6210000  20.5540000  60.7500000  35.4070000  22.4330000  60.1680000
  33.2110000  19.8000000  68.0380000  32.1850000  20.9120000  66.7300000
  34.5670000  18.6400000  69.0960000  38.5950000  21.6640000  58.3670000
  36.3800000  22.4050000  59.1780000  34.6060000  22.9200000  60.0160000
  32.5440000  19.8230000  68.7150000  38.3840000  22.3080000  57.1950000
  39.4100000  21.1950000  58.5040000  36.2080000  23.0650000  57.9250000
  37.1660000  23.0220000  56.9660000  39.0500000  22.2840000  56.5190000
  35.4050000  23.5460000  57.7590000  37.0270000  23.4670000  56.1380000
  36.5800000  28.3100000  89.5060000  36.4100000  28.9860000  88.2820000
  35.6050000  28.3150000  90.5100000  37.8240000  27.5800000  89.7380000
  35.6090000  29.4740000  88.1300000  37.3820000  28.9590000  87.2920000
  34.7910000  28.7870000  90.3790000  35.7750000  27.6350000  91.7230000
  38.8090000  27.5750000  88.7190000  37.9950000  26.9000000  90.9510000
  38.6130000  28.2350000  87.5180000  37.2110000  29.6190000  86.0380000
  34.7910000  27.6390000  92.7420000  37.0190000  26.9050000  91.9550000
  39.6230000  27.1080000  88.8640000  38.8090000  26.4280000  91.0820000
  39.5970000  28.2180000  86.4810000  36.4080000  30.1000000  85.8720000
  38.1680000  29.5760000  85.0800000  34.9860000  26.9800000  93.9420000
  33.9760000  28.1070000  92.5970000  37.1900000  26.2290000  93.1790000
  39.3860000  28.8610000  85.3090000  40.4120000  27.7490000  86.6170000
  38.0300000  30.0210000  84.2520000  34.0020000  26.9970000  94.9800000
  36.2170000  26.2560000  94.1690000  37.9910000  25.7410000  93.3310000
  40.0530000  28.8380000  84.6320000  34.2130000  26.3540000  96.1520000
  33.1870000  27.4660000  94.8430000  36.3890000  25.5960000  95.4230000
  35.4310000  25.6390000  96.3810000  33.5470000  26.3770000  96.8280000
  37.1910000  25.1150000  95.5880000  35.5700000  25.1940000  97.2090000
  35.2490000  18.2000000  21.6710000  35.4190000  17.5230000  22.8950000
  36.2250000  18.1950000  20.6670000  34.0050000  18.9290000  21.4390000
  36.2210000  17.0360000  23.0470000  34.4470000  17.5500000  23.8850000
  37.0380000  17.7220000  20.7980000  36.0540000  18.8750000  19.4540000
  33.0210000  18.9340000  22.4580000  33.8340000  19.6090000  20.2260000
  33.2160000  18.2750000  23.6580000  34.6190000  16.8900000  25.1380000
  37.0390000  18.8700000  18.4350000  34.8100000  19.6040000  19.2220000
  32.2060000  19.4020000  22.3130000  33.0210000  20.0820000  20.0950000
  32.2320000  18.2910000  24.6960000  35.4210000  16.4090000  25.3040000
  33.6610000  16.9340000  26.0970000  36.8430000  19.5290000  17.2340000
  37.8530000  18.4020000  18.5800000  34.6400000  20.2810000  17.9980000
  32.4430000  17.6480000  25.8680000  31.4170000  18.7600000  24.5590000
  33.7990000  16.4880000  26.9250000  37.8270000  19.5120000  16.1970000
  35.6120000  20.2530000  17.0080000  33.8380000  20.7680000  17.8460000
  31.7770000  17.6710000  26.5440000  37.6160000  20.1560000  15.0250000
  38.6420000  19.0430000  16.3330000  35.4400000  20.9130000  15.7540000
  36.3980000  20.8700000  14.7950000  38.2820000  20.1330000  14.3480000
  34.6380000  21.3940000  15.5880000  36.2600000  21.3150000  13.9670000
  34.7480000  14.9230000   7.6140000  34.9180000  14.2460000   8.8380000
  35.7240000  14.9180000   6.6100000  33.5040000  15.6520000   7.3820000
  35.7190000  13.7590000   8.9900000  33.9460000  14.2740000   9.8280000
  36.5370000  14.4450000   6.7410000  35.5530000  15.5980000   5.3970000
  32.5190000  15.6570000   8.4010000  33.3330000  16.3320000   6.1690000
  32.7150000  14.9980000   9.6010000  34.1170000  13.6140000  11.0820000
  36.5370000  15.5930000   4.3780000  34.3090000  16.3270000   5.1650000
  31.7050000  16.1250000   8.2560000  32.5190000  16.8050000   6.0380000
  31.7310000  15.0150000  10.6390000  34.9200000  13.1320000  11.2470000
  33.1600000  13.6570000  12.0400000  36.3420000  16.2520000   3.1770000
  37.3520000  15.1250000   4.5230000  34.1380000  17.0040000   3.9410000
  31.9420000  14.3710000  11.8110000  30.9160000  15.4840000  10.5020000
  33.2980000  13.2120000  12.8680000  37.3260000  16.2350000   2.1400000
  35.1110000  16.9770000   2.9510000  33.3370000  17.4910000   3.7890000
  31.2750000  14.3940000  12.4870000  37.1150000  16.8790000   0.9680000
  38.1410000  15.7670000   2.2760000  34.9390000  17.6360000   1.6970000
  35.8970000  17.5930000   0.7390000  37.7810000  16.8560000   0.2920000
  34.1370000  18.1180000   1.5310000  35.7580000  18.0390000  -0.0890000
  36.0470000  30.5590000  33.2790000  35.8770000  31.2360000  32.0540000
  35.0720000  30.5650000  34.2820000  37.2920000  29.8300000  33.5110000
  35.0760000  31.7240000  31.9030000  36.8500000  31.2090000  31.0650000
  34.2580000  31.0370000  34.1520000  35.2420000  29.8840000  35.4960000
  38.2760000  29.8250000  32.4920000  37.4620000  29.1500000  34.7240000
  38.0800000  30.4850000  31.2910000  36.6780000  31.8690000  29.8110000
  34.2580000  29.8890000  36.5150000  36.4860000  29.1550000  35.7270000
  39.0900000  29.3580000  32.6360000  38.2760000  28.6780000  34.8550000
  39.0650000  30.4680000  30.2540000  35.8750000  32.3500000  29.6450000
  37.6350000  31.8260000  28.8520000  34.4540000  29.2300000  37.7150000
  33.4440000  30.3570000  36.3700000  36.6570000  28.4790000  36.9520000
  38.8530000  31.1110000  29.0810000  39.8790000  29.9990000  30.3900000
  37.4970000  32.2710000  28.0240000  33.4690000  29.2470000  38.7520000
  35.6840000  28.5060000  37.9410000  37.4580000  27.9910000  37.1040000
  39.5200000  31.0880000  28.4050000  33.6810000  28.6030000  39.9250000
  32.6550000  29.7160000  38.6160000  35.8560000  27.8460000  39.1950000
  34.8980000  27.8890000  40.1540000  33.0140000  28.6270000  40.6010000
  36.6590000  27.3650000  39.3610000  35.0370000  27.4440000  40.9820000
  35.4840000  22.6020000   7.6140000  35.6540000  21.9250000   8.8380000
  36.4600000  22.5960000   6.6100000  34.2400000  23.3310000   7.3820000
  36.4560000  21.4370000   8.9900000  34.6820000  21.9520000   9.8280000
  37.2730000  22.1240000   6.7410000  36.2890000  23.2770000   5.3970000
  33.2550000  23.3360000   8.4010000  34.0690000  24.0110000   6.1690000
  33.4510000  22.6760000   9.6010000  34.8540000  21.2920000  11.0820000
  37.2730000  23.2720000   4.3780000  35.0450000  24.0060000   5.1650000
  32.4410000  23.8030000   8.2560000  33.2560000  24.4830000   6.0380000
  32.4670000  22.6930000  10.6390000  35.6560000  20.8110000  11.2470000
  33.8960000  21.3350000  12.0400000  37.0780000  23.9310000   3.1770000
  38.0880000  22.8040000   4.5230000  34.8750000  24.6820000   3.9410000
  32.6780000  22.0500000  11.8110000  31.6520000  23.1620000  10.5020000
  34.0340000  20.8900000  12.8680000  38.0620000  23.9140000   2.1400000
  35.8470000  24.6550000   2.9510000  34.0730000  25.1700000   3.7890000
  32.0120000  22.0730000  12.4870000  37.8510000  24.5580000   0.9680000
  38.8770000  23.4450000   2.2760000  35.6750000  25.3150000   1.6970000
  36.6330000  25.2720000   0.7390000  38.5170000  24.5340000   0.2920000
  34.8730000  25.7960000   1.5310000  36.4950000  25.7170000  -0.0890000
  35.9850000  25.8780000  21.6710000  36.1560000  25.2020000  22.8950000
  36.9610000  25.8730000  20.6670000  34.7410000  26.6080000  21.4390000
  36.9570000  24.7140000  23.0470000  35.1830000  25.2290000  23.8850000
  37.7750000  25.4010000  20.7980000  36.7900000  26.5530000  19.4540000
  33.7570000  26.6120000  22.4580000  34.5700000  27.2880000  20.2260000
  33.9520000  25.9530000  23.6580000  35.3550000  24.5690000  25.1380000
  37.7750000  26.5480000  18.4350000  35.5460000  27.2830000  19.2220000
  32.9420000  27.0800000  22.3130000  33.7570000  27.7600000  20.0950000
  32.9680000  25.9700000  24.6960000  36.1570000  24.0880000  25.3040000
  34.3970000  24.6120000  26.0970000  37.5790000  27.2080000  17.2340000
  38.5890000  26.0810000  18.5800000  35.3760000  27.9590000  17.9980000
  33.1790000  25.3270000  25.8680000  32.1530000  26.4390000  24.5590000
  34.5360000  24.1670000  26.9250000  38.5630000  27.1910000  16.1970000
  36.3480000  27.9320000  17.0080000  34.5750000  28.4470000  17.8460000
  32.5130000  25.3500000  26.5440000  38.3520000  27.8340000  15.0250000
  39.3780000  26.7220000  16.3330000  36.1770000  28.5920000  15.7540000
  37.1340000  28.5490000  14.7950000  39.0190000  27.8110000  14.3480000
  35.3740000  29.0730000  15.5880000  36.9960000  28.9940000  13.9670000
  38.0530000  43.6670000  89.5060000  37.8820000  44.3430000  88.2820000
  37.0770000  43.6720000  90.5100000  39.2970000  42.9380000  89.7380000
  37.0810000  44.8310000  88.1300000  38.8550000  44.3160000  87.2920000
  36.2630000  44.1440000  90.3790000  37.2470000  42.9920000  91.7230000
  40.2810000  42.9330000  88.7190000  39.4670000  42.2570000  90.9510000
  40.0850000  43.5920000  87.5180000  38.6830000  44.9760000  86.0380000
  36.2630000  42.9970000  92.7420000  38.4910000  42.2630000  91.9550000
  41.0950000  42.4650000  88.8640000  40.2810000  41.7850000  91.0820000
  41.0700000  43.5750000  86.4810000  37.8800000  45.4570000  85.8720000
  39.6410000  44.9330000  85.0800000  36.4590000  42.3370000  93.9420000
  35.4490000  43.4640000  92.5970000  38.6620000  41.5860000  93.1790000
  40.8580000  44.2190000  85.3090000  41.8840000  43.1060000  86.6170000
  39.5020000  45.3780000  84.2520000  35.4740000  42.3540000  94.9800000
  37.6890000  41.6130000  94.1690000  39.4630000  41.0980000  93.3310000
  41.5250000  44.1950000  84.6320000  35.6860000  41.7110000  96.1520000
  34.6600000  42.8230000  94.8430000  37.8610000  40.9530000  95.4230000
  36.9030000  40.9960000  96.3810000  35.0190000  41.7340000  96.8280000
  38.6640000  40.4720000  95.5880000  37.0420000  40.5510000  97.2090000
  38.2250000  43.3880000  63.8410000  38.3950000  42.7110000  65.0650000
  39.2010000  43.3820000  62.8370000  36.9810000  44.1170000  63.6090000
  39.1970000  42.2230000  65.2170000  37.4230000  42.7380000  66.0550000
  40.0140000  42.9100000  62.9680000  39.0300000  44.0620000  61.6240000
  35.9970000  44.1220000  64.6280000  36.8100000  44.7970000  62.3960000
  36.1920000  43.4620000  65.8290000  37.5950000  42.0780000  67.3090000
  40.0150000  44.0580000  60.6050000  37.7860000  44.7920000  61.3920000
  35.1820000  44.5890000  64.4830000  35.9970000  45.2690000  62.2650000
  35.2080000  43.4790000  66.8660000  38.3970000  41.5970000  67.4750000
  36.6370000  42.1210000  68.2680000  39.8190000  44.7170000  59.4050000
  40.8290000  43.5900000  60.7500000  37.6160000  45.4680000  60.1680000
  35.4190000  42.8360000  68.0380000  34.3930000  43.9480000  66.7300000
  36.7750000  41.6760000  69.0960000  40.8030000  44.7000000  58.3670000
  38.5880000  45.4410000  59.1780000  36.8140000  45.9560000  60.0160000
  34.7530000  42.8590000  68.7150000  40.5920000  45.3440000  57.1950000
  41.6180000  44.2310000  58.5040000  38.4160000  46.1010000  57.9250000
  39.3740000  46.0580000  56.9660000  41.2580000  45.3200000  56.5190000
  37.6140000  46.5820000  57.7590000  39.2360000  46.5030000  56.1380000
  38.7890000  51.3450000  89.5060000  38.6180000  52.0220000  88.2820000
  37.8130000  51.3500000  90.5100000  40.0330000  50.6160000  89.7380000
  37.8170000  52.5100000  88.1300000  39.5910000  51.9950000  87.2920000
  36.9990000  51.8230000  90.3790000  37.9830000  50.6700000  91.7230000
  41.0170000  50.6110000  88.7190000  40.2030000  49.9360000  90.9510000
  40.8210000  51.2710000  87.5180000  39.4190000  52.6550000  86.0380000
  36.9990000  50.6750000  92.7420000  39.2280000  49.9410000  91.9550000
  41.8310000  50.1440000  88.8640000  41.0170000  49.4640000  91.0820000
  41.8060000  51.2540000  86.4810000  38.6160000  53.1360000  85.8720000
  40.3770000  52.6120000  85.0800000  37.1950000  50.0160000  93.9420000
  36.1850000  51.1430000  92.5970000  39.3980000  49.2640000  93.1790000
  41.5950000  51.8970000  85.3090000  42.6200000  50.7850000  86.6170000
  40.2380000  53.0570000  84.2520000  36.2110000  50.0330000  94.9800000
  38.4250000  49.2920000  94.1690000  40.1990000  48.7770000  93.3310000
  42.2610000  51.8740000  84.6320000  36.4220000  49.3890000  96.1520000
  35.3960000  50.5020000  94.8430000  38.5970000  48.6320000  95.4230000
  37.6400000  48.6750000  96.3810000  35.7550000  49.4130000  96.8280000
  39.4000000  48.1510000  95.5880000  37.7780000  48.2300000  97.2090000
  39.0240000  55.7470000  75.4490000  38.8530000  56.4240000  74.2250000
  38.0480000  55.7520000  76.4530000  40.2680000  55.0180000  75.6810000
  38.0520000  56.9110000  74.0730000  39.8260000  56.3970000  73.2350000
  37.2340000  56.2250000  76.3220000  38.2180000  55.0720000  77.6660000
  41.2520000  55.0130000  74.6620000  40.4380000  54.3380000  76.8940000
  41.0560000  55.6720000  73.4620000  39.6540000  57.0560000  71.9810000
  37.2340000  55.0770000  78.6850000  39.4620000  54.3430000  77.8980000
  42.0660000  54.5450000  74.8070000  41.2520000  53.8650000  77.0250000
  42.0410000  55.6550000  72.4240000  38.8510000  57.5380000  71.8150000
  40.6110000  57.0130000  71.0230000  37.4300000  54.4180000  79.8860000
  36.4200000  55.5450000  78.5400000  39.6330000  53.6660000  79.1220000
  41.8290000  56.2990000  71.2520000  42.8550000  55.1870000  72.5610000
  40.4730000  57.4580000  70.1950000  36.4450000  54.4350000  80.9230000
  38.6600000  53.6930000  80.1120000  40.4340000  53.1790000  79.2740000
  42.4960000  56.2760000  70.5760000  36.6570000  53.7910000  82.0950000
  35.6310000  54.9030000  80.7870000  38.8320000  53.0340000  81.3660000
  37.8740000  53.0770000  82.3240000  35.9900000  53.8140000  82.7710000
  39.6350000  52.5520000  81.5320000  38.0130000  52.6320000  83.1520000
  39.5250000  59.0240000  89.5060000  39.3540000  59.7010000  88.2820000
  38.5490000  59.0290000  90.5100000  40.7690000  58.2950000  89.7380000
  38.5530000  60.1880000  88.1300000  40.3270000  59.6730000  87.2920000
  37.7350000  59.5020000  90.3790000  38.7200000  58.3490000  91.7230000
  41.7530000  58.2900000  88.7190000  40.9390000  57.6150000  90.9510000
  41.5580000  58.9490000  87.5180000  40.1550000  60.3330000  86.0380000
  37.7350000  58.3540000  92.7420000  39.9640000  57.6200000  91.9550000
  42.5680000  57.8220000  88.8640000  41.7530000  57.1420000  91.0820000
  42.5420000  58.9320000  86.4810000  39.3520000  60.8140000  85.8720000
  41.1130000  60.2900000  85.0800000  37.9310000  57.6950000  93.9420000
  36.9210000  58.8220000  92.5970000  40.1340000  56.9430000  93.1790000
  42.3310000  59.5760000  85.3090000  43.3570000  58.4630000  86.6170000
  40.9740000  60.7350000  84.2520000  36.9470000  57.7110000  94.9800000
  39.1620000  56.9700000  94.1690000  40.9350000  56.4560000  93.3310000
  42.9970000  59.5530000  84.6320000  37.1580000  57.0680000  96.1520000
  36.1320000  58.1800000  94.8430000  39.3330000  56.3100000  95.4230000
  38.3760000  56.3530000  96.3810000  36.4910000  57.0910000  96.8280000
  40.1360000  55.8290000  95.5880000  38.5140000  55.9080000  97.2090000
  37.7550000  50.3180000  19.2220000  37.5840000  50.9950000  17.9980000
  36.7790000  50.3230000  20.2260000  38.9990000  49.5890000  19.4540000
  36.7830000  51.4830000  17.8460000  38.5570000  50.9680000  17.0080000
  35.9650000  50.7960000  20.0950000  36.9490000  49.6430000  21.4390000
  39.9830000  49.5840000  18.4350000  39.1690000  48.9090000  20.6670000
  39.7870000  50.2440000  17.2340000  38.3850000  51.6280000  15.7540000
  35.9650000  49.6480000  22.4580000  38.1930000  48.9140000  21.6710000
  40.7970000  49.1170000  18.5800000  39.9830000  48.4370000  20.7980000
  40.7720000  50.2270000  16.1970000  37.5820000  52.1090000  15.5880000
  39.3430000  51.5850000  14.7950000  36.1610000  48.9890000  23.6580000
  35.1510000  50.1160000  22.3130000  38.3640000  48.2380000  22.8950000
  40.5600000  50.8700000  15.0250000  41.5860000  49.7580000  16.3330000
  39.2040000  52.0300000  13.9670000  35.1760000  49.0060000  24.6960000
  37.3910000  48.2650000  23.8850000  39.1650000  47.7500000  23.0470000
  41.2270000  50.8470000  14.3480000  35.3880000  48.3620000  25.8680000
  34.3620000  49.4750000  24.5590000  37.5630000  47.6050000  25.1380000
  36.6050000  47.6480000  26.0970000  34.7210000  48.3860000  26.5440000
  38.3660000  47.1240000  25.3040000  36.7440000  47.2030000  26.9250000
  39.2580000  60.1490000  61.3920000  39.0880000  60.8260000  60.1680000
  38.2830000  60.1540000  62.3960000  40.5020000  59.4200000  61.6240000
  38.2870000  61.3130000  60.0160000  40.0610000  60.7980000  59.1780000
  37.4690000  60.6260000  62.2650000  38.4530000  59.4740000  63.6090000
  41.4870000  59.4150000  60.6050000  40.6730000  58.7400000  62.8370000
  41.2910000  60.0740000  59.4050000  39.8890000  61.4580000  57.9250000
  37.4690000  59.4790000  64.6280000  39.6970000  58.7450000  63.8410000
  42.3010000  58.9470000  60.7500000  41.4870000  58.2670000  62.9680000
  42.2750000  60.0570000  58.3670000  39.0860000  61.9390000  57.7590000
  40.8460000  61.4150000  56.9660000  37.6640000  58.8200000  65.8290000
  36.6550000  59.9460000  64.4830000  39.8680000  58.0680000  65.0650000
  42.0640000  60.7010000  57.1950000  43.0900000  59.5880000  58.5040000
  40.7080000  61.8600000  56.1380000  36.6800000  58.8360000  66.8660000
  38.8950000  58.0950000  66.0550000  40.6690000  57.5800000  65.2170000
  42.7310000  60.6770000  56.5190000  36.8910000  58.1930000  68.0380000
  35.8660000  59.3050000  66.7300000  39.0670000  57.4350000  67.3090000
  38.1090000  57.4780000  68.2680000  36.2250000  58.2160000  68.7150000
  39.8700000  56.9540000  67.4750000  38.2480000  57.0330000  69.0960000
  39.7600000  63.4260000  75.4490000  39.5890000  64.1020000  74.2250000
  38.7840000  63.4310000  76.4530000  41.0040000  62.6970000  75.6810000
  38.7880000  64.5900000  74.0730000  40.5620000  64.0750000  73.2350000
  37.9700000  63.9030000  76.3220000  38.9540000  62.7510000  77.6660000
  41.9880000  62.6920000  74.6620000  41.1740000  62.0160000  76.8940000
  41.7920000  63.3510000  73.4620000  40.3900000  64.7350000  71.9810000
  37.9700000  62.7560000  78.6850000  40.1990000  62.0220000  77.8980000
  42.8020000  62.2240000  74.8070000  41.9880000  61.5440000  77.0250000
  42.7770000  63.3340000  72.4240000  39.5870000  65.2160000  71.8150000
  41.3480000  64.6920000  71.0230000  38.1660000  62.0960000  79.8860000
  37.1560000  63.2230000  78.5400000  40.3690000  61.3450000  79.1220000
  42.5650000  63.9780000  71.2520000  43.5910000  62.8650000  72.5610000
  41.2090000  65.1370000  70.1950000  37.1810000  62.1130000  80.9230000
  39.3960000  61.3720000  80.1120000  41.1700000  60.8570000  79.2740000
  43.2320000  63.9540000  70.5760000  37.3930000  61.4700000  82.0950000
  36.3670000  62.5820000  80.7870000  39.5680000  60.7120000  81.3660000
  38.6110000  60.7550000  82.3240000  36.7260000  61.4930000  82.7710000
  40.3710000  60.2310000  81.5320000  38.7490000  60.3100000  83.1520000
  40.2610000  66.7030000  89.5060000  40.0900000  67.3790000  88.2820000
  39.2850000  66.7080000  90.5100000  41.5050000  65.9730000  89.7380000
  39.2890000  67.8670000  88.1300000  41.0630000  67.3520000  87.2920000
  38.4710000  67.1800000  90.3790000  39.4560000  66.0280000  91.7230000
  42.4890000  65.9680000  88.7190000  41.6760000  65.2930000  90.9510000
  42.2940000  66.6280000  87.5180000  40.8910000  68.0120000  86.0380000
  38.4710000  66.0320000  92.7420000  40.7000000  65.2980000  91.9550000
  43.3040000  65.5010000  88.8640000  42.4890000  64.8210000  91.0820000
  43.2780000  66.6110000  86.4810000  40.0890000  68.4930000  85.8720000
  41.8490000  67.9690000  85.0800000  38.6670000  65.3730000  93.9420000
  37.6570000  66.5000000  92.5970000  40.8700000  64.6220000  93.1790000
  43.0670000  67.2540000  85.3090000  44.0930000  66.1420000  86.6170000
  41.7100000  68.4140000  84.2520000  37.6830000  65.3900000  94.9800000
  39.8980000  64.6490000  94.1690000  41.6710000  64.1340000  93.3310000
  43.7330000  67.2310000  84.6320000  37.8940000  64.7470000  96.1520000
  36.8680000  65.8590000  94.8430000  40.0690000  63.9890000  95.4230000
  39.1120000  64.0320000  96.3810000  37.2270000  64.7700000  96.8280000
  40.8720000  63.5080000  95.5880000  39.2500000  63.5870000  97.2090000
  40.4960000  71.1040000  75.4490000  40.3250000  71.7810000  74.2250000
  39.5200000  71.1090000  76.4530000  41.7400000  70.3750000  75.6810000
  39.5240000  72.2690000  74.0730000  41.2980000  71.7540000  73.2350000
  38.7060000  71.5820000  76.3220000  39.6910000  70.4290000  77.6660000
  42.7240000  70.3700000  74.6620000  41.9100000  69.6950000  76.8940000
  42.5290000  71.0290000  73.4620000  41.1260000  72.4140000  71.9810000
  38.7060000  70.4340000  78.6850000  40.9350000  69.7000000  77.8980000
  43.5380000  69.9030000  74.8070000  42.7240000  69.2230000  77.0250000
  43.5130000  71.0130000  72.4240000  40.3230000  72.8950000  71.8150000
  42.0840000  72.3710000  71.0230000  38.9020000  69.7750000  79.8860000
  37.8920000  70.9020000  78.5400000  41.1050000  69.0230000  79.1220000
  43.3020000  71.6560000  71.2520000  44.3270000  70.5440000  72.5610000
  41.9450000  72.8160000  70.1950000  37.9180000  69.7920000  80.9230000
  40.1330000  69.0510000  80.1120000  41.9060000  68.5360000  79.2740000
  43.9680000  71.6330000  70.5760000  38.1290000  69.1480000  82.0950000
  37.1030000  70.2610000  80.7870000  40.3040000  68.3910000  81.3660000
  39.3470000  68.4340000  82.3240000  37.4620000  69.1720000  82.7710000
  41.1070000  67.9100000  81.5320000  39.4850000  67.9890000  83.1520000
  39.1640000  60.9950000   7.6140000  39.3350000  60.3180000   8.8380000
  40.1400000  60.9890000   6.6100000  37.9200000  61.7240000   7.3820000
  40.1360000  59.8300000   8.9900000  38.3620000  60.3450000   9.8280000
  40.9540000  60.5170000   6.7410000  39.9700000  61.6700000   5.3970000
  36.9360000  61.7290000   8.4010000  37.7500000  62.4040000   6.1690000
  37.1320000  61.0690000   9.6010000  38.5340000  59.6850000  11.0820000
  40.9540000  61.6650000   4.3780000  38.7260000  62.3990000   5.1650000
  36.1220000  62.1960000   8.2560000  36.9360000  62.8760000   6.0380000
  36.1470000  61.0860000  10.6390000  39.3370000  59.2040000  11.2470000
  37.5760000  59.7280000  12.0400000  40.7580000  62.3240000   3.1770000
  41.7680000  61.1970000   4.5230000  38.5550000  63.0750000   3.9410000
  36.3590000  60.4430000  11.8110000  35.3330000  61.5550000  10.5020000
  37.7150000  59.2830000  12.8680000  41.7430000  62.3070000   2.1400000
  39.5280000  63.0480000   2.9510000  37.7540000  63.5630000   3.7890000
  35.6920000  60.4660000  12.4870000  41.5310000  62.9510000   0.9680000
  42.5570000  61.8380000   2.2760000  39.3560000  63.7080000   1.6970000
  40.3140000  63.6650000   0.7390000  42.1980000  62.9270000   0.2920000
  38.5530000  64.1890000   1.5310000  40.1750000  64.1100000  -0.0890000
  41.7330000  82.0600000  89.5060000  41.5630000  82.7360000  88.2820000
  40.7570000  82.0650000  90.5100000  42.9770000  81.3310000  89.7380000
  40.7610000  83.2240000  88.1300000  42.5350000  82.7090000  87.2920000
  39.9440000  82.5370000  90.3790000  40.9280000  81.3850000  91.7230000
  43.9620000  81.3260000  88.7190000  43.1480000  80.6500000  90.9510000
  43.7660000  81.9850000  87.5180000  42.3630000  83.3690000  86.0380000
  39.9440000  81.3900000  92.7420000  42.1720000  80.6560000  91.9550000
  44.7760000  80.8580000  88.8640000  43.9610000  80.1780000  91.0820000
  44.7500000  81.9680000  86.4810000  41.5610000  83.8500000  85.8720000
  43.3210000  83.3260000  85.0800000  40.1390000  80.7300000  93.9420000
  39.1290000  81.8570000  92.5970000  42.3420000  79.9790000  93.1790000
  44.5390000  82.6120000  85.3090000  45.5650000  81.4990000  86.6170000
  43.1830000  83.7710000  84.2520000  39.1550000  80.7470000  94.9800000
  41.3700000  80.0060000  94.1690000  43.1440000  79.4910000  93.3310000
  45.2050000  82.5880000  84.6320000  39.3660000  80.1040000  96.1520000
  38.3400000  81.2160000  94.8430000  41.5420000  79.3460000  95.4230000
  40.5840000  79.3890000  96.3810000  38.7000000  80.1270000  96.8280000
  42.3440000  78.8650000  95.5880000  40.7220000  78.9440000  97.2090000
  39.2270000  65.6760000  19.2220000  39.0560000  66.3520000  17.9980000
  38.2510000  65.6810000  20.2260000  40.4710000  64.9460000  19.4540000
  38.2550000  66.8400000  17.8460000  40.0290000  66.3250000  17.0080000
  37.4370000  66.1530000  20.0950000  38.4220000  65.0010000  21.4390000
  41.4550000  64.9410000  18.4350000  40.6410000  64.2660000  20.6670000
  41.2600000  65.6010000  17.2340000  39.8570000  66.9850000  15.7540000
  37.4370000  65.0050000  22.4580000  39.6660000  64.2710000  21.6710000
  42.2700000  64.4740000  18.5800000  41.4550000  63.7940000  20.7980000
  42.2440000  65.5840000  16.1970000  39.0550000  67.4660000  15.5880000
  40.8150000  66.9420000  14.7950000  37.6330000  64.3460000  23.6580000
  36.6230000  65.4730000  22.3130000  39.8360000  63.5950000  22.8950000
  42.0330000  66.2270000  15.0250000  43.0590000  65.1150000  16.3330000
  40.6760000  67.3870000  13.9670000  36.6490000  64.3630000  24.6960000
  38.8640000  63.6220000  23.8850000  40.6370000  63.1070000  23.0470000
  42.6990000  66.2040000  14.3480000  36.8600000  63.7200000  25.8680000
  35.8340000  64.8320000  24.5590000  39.0350000  62.9620000  25.1380000
  38.0780000  63.0050000  26.0970000  36.1930000  63.7430000  26.5440000
  39.8380000  62.4810000  25.3040000  38.2160000  62.5600000  26.9250000
  41.2320000  78.7830000  75.4490000  41.0610000  79.4600000  74.2250000
  40.2560000  78.7880000  76.4530000  42.4760000  78.0540000  75.6810000
  40.2600000  79.9470000  74.0730000  42.0340000  79.4320000  73.2350000
  39.4420000  79.2600000  76.3220000  40.4270000  78.1080000  77.6660000
  43.4600000  78.0490000  74.6620000  42.6470000  77.3740000  76.8940000
  43.2650000  78.7080000  73.4620000  41.8620000  80.0920000  71.9810000
  39.4420000  78.1130000  78.6850000  41.6710000  77.3790000  77.8980000
  44.2750000  77.5810000  74.8070000  43.4600000  76.9010000  77.0250000
  44.2490000  78.6910000  72.4240000  41.0600000  80.5730000  71.8150000
  42.8200000  80.0490000  71.0230000  39.6380000  77.4540000  79.8860000
  38.6280000  78.5800000  78.5400000  41.8410000  76.7020000  79.1220000
  44.0380000  79.3350000  71.2520000  45.0640000  78.2220000  72.5610000
  42.6810000  80.4940000  70.1950000  38.6540000  77.4700000  80.9230000
  40.8690000  76.7290000  80.1120000  42.6420000  76.2150000  79.2740000
  44.7040000  79.3120000  70.5760000  38.8650000  76.8270000  82.0950000
  37.8390000  77.9390000  80.7870000  41.0400000  76.0690000  81.3660000
  40.0830000  76.1120000  82.3240000  38.1980000  76.8500000  82.7710000
  41.8430000  75.5880000  81.5320000  40.2210000  75.6670000  83.1520000
  39.9630000  73.3540000  19.2220000  39.7920000  74.0310000  17.9980000
  38.9870000  73.3590000  20.2260000  41.2070000  72.6250000  19.4540000
  38.9910000  74.5180000  17.8460000  40.7650000  74.0040000  17.0080000
  38.1740000  73.8320000  20.0950000  39.1580000  72.6790000  21.4390000
  42.1910000  72.6200000  18.4350000  41.3780000  71.9450000  20.6670000
  41.9960000  73.2790000  17.2340000  40.5930000  74.6630000  15.7540000
  38.1730000  72.6840000  22.4580000  40.4020000  71.9500000  21.6710000
  43.0060000  72.1520000  18.5800000  42.1910000  71.4720000  20.7980000
  42.9800000  73.2620000  16.1970000  39.7910000  75.1450000  15.5880000
  41.5510000  74.6200000  14.7950000  38.3690000  72.0250000  23.6580000
  37.3590000  73.1520000  22.3130000  40.5720000  71.2730000  22.8950000
  42.7690000  73.9060000  15.0250000  43.7950000  72.7940000  16.3330000
  41.4130000  75.0660000  13.9670000  37.3850000  72.0420000  24.6960000
  39.6000000  71.3010000  23.8850000  41.3730000  70.7860000  23.0470000
  43.4350000  73.8830000  14.3480000  37.5960000  71.3980000  25.8680000
  36.5700000  72.5110000  24.5590000  39.7720000  70.6410000  25.1380000
  38.8140000  70.6840000  26.0970000  36.9290000  71.4210000  26.5440000
  40.5740000  70.1590000  25.3040000  38.9520000  70.2390000  26.9250000
  39.4620000  70.0770000   5.1650000  39.2910000  70.7540000   3.9410000
  38.4860000  70.0820000   6.1690000  40.7060000  69.3480000   5.3970000
  38.4900000  71.2420000   3.7890000  40.2640000  70.7270000   2.9510000
  37.6720000  70.5550000   6.0380000  38.6560000  69.4020000   7.3820000
  41.6900000  69.3430000   4.3780000  40.8760000  68.6680000   6.6100000
  41.4940000  70.0020000   3.1770000  40.0920000  71.3870000   1.6970000
  37.6720000  69.4070000   8.4010000  39.9010000  68.6730000   7.6140000
  42.5040000  68.8760000   4.5230000  41.6900000  68.1960000   6.7410000
  42.4790000  69.9860000   2.1400000  39.2890000  71.8680000   1.5310000
  41.0500000  71.3440000   0.7390000  37.8680000  68.7480000   9.6010000
  36.8580000  69.8750000   8.2560000  40.0710000  67.9960000   8.8380000
  42.2680000  70.6290000   0.9680000  43.2930000  69.5170000   2.2760000
  40.9110000  71.7890000  -0.0890000  36.8840000  68.7650000  10.6390000
  39.0980000  68.0240000   9.8280000  40.8720000  67.5090000   8.9900000
  42.9340000  70.6060000   0.2920000  37.0950000  68.1210000  11.8110000
  36.0690000  69.2340000  10.5020000  39.2700000  67.3640000  11.0820000
  38.3130000  67.4070000  12.0400000  36.4280000  68.1450000  12.4870000
  40.0730000  66.8830000  11.2470000  38.4510000  66.9620000  12.8680000
  41.1380000  79.6290000  21.6710000  41.3080000  78.9520000  22.8950000
  42.1140000  79.6230000  20.6670000  39.8940000  80.3580000  21.4390000
  42.1100000  78.4640000  23.0470000  40.3360000  78.9790000  23.8850000
  42.9270000  79.1510000  20.7980000  41.9430000  80.3040000  19.4540000
  38.9100000  80.3630000  22.4580000  39.7230000  81.0380000  20.2260000
  39.1050000  79.7030000  23.6580000  40.5080000  78.3190000  25.1380000
  42.9280000  80.2990000  18.4350000  40.6990000  81.0330000  19.2220000
  38.0950000  80.8300000  22.3130000  38.9100000  81.5100000  20.0950000
  38.1210000  79.7200000  24.6960000  41.3100000  77.8380000  25.3040000
  39.5500000  78.3620000  26.0970000  42.7320000  80.9580000  17.2340000
  43.7420000  79.8310000  18.5800000  40.5290000  81.7090000  17.9980000
  38.3320000  79.0770000  25.8680000  37.3060000  80.1890000  24.5590000
  39.6880000  77.9170000  26.9250000  43.7160000  80.9410000  16.1970000
  41.5010000  81.6820000  17.0080000  39.7270000  82.1970000  17.8460000
  37.6660000  79.1000000  26.5440000  43.5050000  81.5850000  15.0250000
  44.5310000  80.4720000  16.3330000  41.3290000  82.3420000  15.7540000
  42.2870000  82.2990000  14.7950000  44.1710000  81.5610000  14.3480000
  40.5270000  82.8230000  15.5880000  42.1490000  82.7440000  13.9670000
  41.2000000  84.3100000  33.2790000  41.0300000  84.9860000  32.0540000
  40.2250000  84.3150000  34.2820000  42.4440000  83.5800000  33.5110000
  40.2290000  85.4740000  31.9030000  42.0020000  84.9590000  31.0650000
  39.4110000  84.7870000  34.1520000  40.3950000  83.6350000  35.4960000
  43.4290000  83.5750000  32.4920000  42.6150000  82.9000000  34.7240000
  43.2330000  84.2350000  31.2910000  41.8310000  85.6190000  29.8110000
  39.4110000  83.6400000  36.5150000  41.6390000  82.9050000  35.7270000
  44.2430000  83.1080000  32.6360000  43.4290000  82.4280000  34.8550000
  44.2170000  84.2180000  30.2540000  41.0280000  86.1000000  29.6450000
  42.7880000  85.5760000  28.8520000  39.6060000  82.9800000  37.7150000
  38.5960000  84.1070000  36.3700000  41.8100000  82.2290000  36.9520000
  44.0060000  84.8610000  29.0810000  45.0320000  83.7490000  30.3900000
  42.6500000  86.0210000  28.0240000  38.6220000  82.9970000  38.7520000
  40.8370000  82.2560000  37.9410000  42.6110000  81.7410000  37.1040000
  44.6730000  84.8380000  28.4050000  38.8330000  82.3540000  39.9250000
  37.8070000  83.4660000  38.6160000  41.0090000  81.5960000  39.1950000
  40.0510000  81.6390000  40.1540000  38.1670000  82.3770000  40.6010000
  41.8120000  81.1150000  39.3610000  40.1900000  81.1940000  40.9820000
  40.6370000  76.3520000   7.6140000  40.8070000  75.6750000   8.8380000
  41.6120000  76.3470000   6.6100000  39.3930000  77.0810000   7.3820000
  41.6080000  75.1880000   8.9900000  39.8350000  75.7020000   9.8280000
  42.4260000  75.8740000   6.7410000  41.4420000  77.0270000   5.3970000
  38.4080000  77.0860000   8.4010000  39.2220000  77.7610000   6.1690000
  38.6040000  76.4270000   9.6010000  40.0060000  75.0420000  11.0820000
  42.4260000  77.0220000   4.3780000  40.1980000  77.7560000   5.1650000
  37.5940000  77.5540000   8.2560000  38.4080000  78.2340000   6.0380000
  37.6200000  76.4430000  10.6390000  40.8090000  74.5610000  11.2470000
  39.0490000  75.0850000  12.0400000  42.2310000  77.6810000   3.1770000
  43.2410000  76.5540000   4.5230000  40.0270000  78.4330000   3.9410000
  37.8310000  75.8000000  11.8110000  36.8050000  76.9120000  10.5020000
  39.1870000  74.6400000  12.8680000  43.2150000  77.6640000   2.1400000
  41.0000000  78.4050000   2.9510000  39.2260000  78.9200000   3.7890000
  37.1640000  75.8230000  12.4870000  43.0040000  78.3080000   0.9680000
  44.0300000  77.1950000   2.2760000  40.8280000  79.0650000   1.6970000
  41.7860000  79.0220000   0.7390000  43.6700000  78.2850000   0.2920000
  40.0260000  79.5460000   1.5310000  41.6470000  79.4670000  -0.0890000
  43.2050000  97.4170000  89.5060000  43.0350000  98.0940000  88.2820000
  42.2300000  97.4220000  90.5100000  44.4490000  96.6880000  89.7380000
  42.2340000  98.5810000  88.1300000  44.0080000  98.0660000  87.2920000
  41.4160000  97.8950000  90.3790000  42.4000000  96.7420000  91.7230000
  45.4340000  96.6830000  88.7190000  44.6200000  96.0080000  90.9510000
  45.2380000  97.3420000  87.5180000  43.8360000  98.7260000  86.0380000
  41.4160000  96.7470000  92.7420000  43.6440000  96.0130000  91.9550000
  46.2480000  96.2150000  88.8640000  45.4340000  95.5350000  91.0820000
  46.2220000  97.3250000  86.4810000  43.0330000  99.2070000  85.8720000
  44.7930000  98.6830000  85.0800000  41.6110000  96.0880000  93.9420000
  40.6020000  97.2140000  92.5970000  43.8150000  95.3360000  93.1790000
  46.0110000  97.9690000  85.3090000  47.0370000  96.8560000  86.6170000
  44.6550000  99.1280000  84.2520000  40.6270000  96.1040000  94.9800000
  42.8420000  95.3630000  94.1690000  44.6160000  94.8490000  93.3310000
  46.6780000  97.9460000  84.6320000  40.8380000  95.4610000  96.1520000
  39.8130000  96.5730000  94.8430000  43.0140000  94.7030000  95.4230000
  42.0560000  94.7460000  96.3810000  40.1720000  95.4840000  96.8280000
  43.8170000  94.2220000  95.5880000  42.1950000  94.3010000  97.2090000
  34.5750000  15.2020000  33.2790000  34.4050000  15.8790000  32.0540000
  33.5990000  15.2070000  34.2820000  35.8190000  14.4730000  33.5110000
  33.6040000  16.3660000  31.9030000  35.3770000  15.8520000  31.0650000
  32.7860000  15.6800000  34.1520000  33.7700000  14.5270000  35.4960000
  36.8040000  14.4680000  32.4920000  35.9900000  13.7930000  34.7240000
  36.6080000  15.1270000  31.2910000  35.2060000  16.5120000  29.8110000
  32.7860000  14.5320000  36.5150000  35.0140000  13.7980000  35.7270000
  37.6180000  14.0000000  32.6360000  36.8040000  13.3200000  34.8550000
  37.5920000  15.1110000  30.2540000  34.4030000  16.9930000  29.6450000
  36.1630000  16.4690000  28.8520000  32.9810000  13.8730000  37.7150000
  31.9710000  15.0000000  36.3700000  35.1850000  13.1210000  36.9520000
  37.3810000  15.7540000  29.0810000  38.4070000  14.6420000  30.3900000
  36.0250000  16.9140000  28.0240000  31.9970000  13.8900000  38.7520000
  34.2120000  13.1490000  37.9410000  35.9860000  12.6340000  37.1040000
  38.0480000  15.7310000  28.4050000  32.2080000  13.2460000  39.9250000
  31.1820000  14.3590000  38.6160000  34.3840000  12.4890000  39.1950000
  33.4260000  12.5320000  40.1540000  31.5420000  13.2690000  40.6010000
  35.1860000  12.0080000  39.3610000  33.5650000  12.0870000  40.9820000
  35.0770000  18.4790000  47.3360000  34.9060000  19.1560000  46.1110000
  34.1010000  18.4840000  48.3390000  36.3210000  17.7500000  47.5670000
  34.1050000  19.6430000  45.9590000  35.8790000  19.1290000  45.1220000
  33.2870000  18.9570000  48.2080000  34.2710000  17.8040000  49.5520000
  37.3050000  17.7450000  46.5480000  36.4910000  17.0700000  48.7810000
  37.1090000  18.4040000  45.3480000  35.7070000  19.7880000  43.8680000
  33.2870000  17.8090000  50.5710000  35.5150000  17.0750000  49.7840000
  38.1190000  17.2770000  46.6930000  37.3050000  16.5970000  48.9110000
  38.0940000  18.3870000  44.3110000  34.9040000  20.2700000  43.7020000
  36.6650000  19.7450000  42.9090000  33.4830000  17.1500000  51.7720000
  32.4730000  18.2770000  50.4270000  35.6860000  16.3980000  51.0090000
  37.8820000  19.0310000  43.1380000  38.9080000  17.9190000  44.4470000
  36.5260000  20.1900000  42.0810000  32.4980000  17.1670000  52.8090000
  34.7130000  16.4250000  51.9980000  36.4870000  15.9110000  51.1600000
  38.5490000  19.0080000  42.4620000  32.7100000  16.5230000  53.9820000
  31.6840000  17.6350000  52.6730000  34.8850000  15.7660000  53.2520000
  33.9270000  15.8090000  54.2110000  32.0430000  16.5460000  54.6580000
  35.6880000  15.2840000  53.4180000  34.0660000  15.3630000  55.0390000
  36.0790000  25.0330000  75.4490000  35.9090000  25.7090000  74.2250000
  35.1030000  25.0380000  76.4530000  37.3230000  24.3040000  75.6810000
  35.1070000  26.1970000  74.0730000  36.8810000  25.6820000  73.2350000
  34.2900000  25.5100000  76.3220000  35.2740000  24.3580000  77.6660000
  38.3070000  24.2990000  74.6620000  37.4940000  23.6230000  76.8940000
  38.1120000  24.9580000  73.4620000  36.7090000  26.3420000  71.9810000
  34.2890000  24.3630000  78.6850000  36.5180000  23.6290000  77.8980000
  39.1220000  23.8310000  74.8070000  38.3070000  23.1510000  77.0250000
  39.0960000  24.9410000  72.4240000  35.9070000  26.8230000  71.8150000
  37.6670000  26.2990000  71.0230000  34.4850000  23.7030000  79.8860000
  33.4750000  24.8300000  78.5400000  36.6880000  22.9520000  79.1220000
  38.8850000  25.5850000  71.2520000  39.9110000  24.4720000  72.5610000
  37.5290000  26.7440000  70.1950000  33.5010000  23.7200000  80.9230000
  35.7160000  22.9790000  80.1120000  37.4900000  22.4640000  79.2740000
  39.5510000  25.5610000  70.5760000  33.7120000  23.0770000  82.0950000
  32.6860000  24.1890000  80.7870000  35.8880000  22.3190000  81.3660000
  34.9300000  22.3620000  82.3240000  33.0460000  23.1000000  82.7710000
  36.6900000  21.8380000  81.5320000  35.0680000  21.9170000  83.1520000
  35.3110000  22.8810000  33.2790000  35.1410000  23.5580000  32.0540000
  34.3360000  22.8860000  34.2820000  36.5550000  22.1520000  33.5110000
  34.3400000  24.0450000  31.9030000  36.1140000  23.5300000  31.0650000
  33.5220000  23.3580000  34.1520000  34.5060000  22.2060000  35.4960000
  37.5400000  22.1470000  32.4920000  36.7260000  21.4720000  34.7240000
  37.3440000  22.8060000  31.2910000  35.9420000  24.1900000  29.8110000
  33.5220000  22.2110000  36.5150000  35.7500000  21.4770000  35.7270000
  38.3540000  21.6790000  32.6360000  37.5400000  20.9990000  34.8550000
  38.3280000  22.7890000  30.2540000  35.1390000  24.6710000  29.6450000
  36.8990000  24.1470000  28.8520000  33.7170000  21.5510000  37.7150000
  32.7080000  22.6780000  36.3700000  35.9210000  20.8000000  36.9520000
  38.1170000  23.4330000  29.0810000  39.1430000  22.3200000  30.3900000
  36.7610000  24.5920000  28.0240000  32.7330000  21.5680000  38.7520000
  34.9480000  20.8270000  37.9410000  36.7220000  20.3120000  37.1040000
  38.7840000  23.4090000  28.4050000  32.9440000  20.9250000  39.9250000
  31.9190000  22.0370000  38.6160000  35.1200000  20.1670000  39.1950000
  34.1620000  20.2100000  40.1540000  32.2780000  20.9480000  40.6010000
  35.9230000  19.6860000  39.3610000  34.3010000  19.7650000  40.9820000
  36.8150000  32.7110000  75.4490000  36.6450000  33.3880000  74.2250000
  35.8390000  32.7160000  76.4530000  38.0590000  31.9820000  75.6810000
  35.8440000  33.8760000  74.0730000  37.6170000  33.3610000  73.2350000
  35.0260000  33.1890000  76.3220000  36.0100000  32.0360000  77.6660000
  39.0440000  31.9770000  74.6620000  38.2300000  31.3020000  76.8940000
  38.8480000  32.6360000  73.4620000  37.4450000  34.0210000  71.9810000
  35.0260000  32.0410000  78.6850000  37.2540000  31.3070000  77.8980000
  39.8580000  31.5100000  74.8070000  39.0430000  30.8300000  77.0250000
  39.8320000  32.6200000  72.4240000  36.6430000  34.5020000  71.8150000
  38.4030000  33.9780000  71.0230000  35.2210000  31.3820000  79.8860000
  34.2110000  32.5090000  78.5400000  37.4240000  30.6300000  79.1220000
  39.6210000  33.2630000  71.2520000  40.6470000  32.1510000  72.5610000
  38.2650000  34.4230000  70.1950000  34.2370000  31.3990000  80.9230000
  36.4520000  30.6580000  80.1120000  38.2260000  30.1430000  79.2740000
  40.2880000  33.2400000  70.5760000  34.4480000  30.7550000  82.0950000
  33.4220000  31.8680000  80.7870000  36.6240000  29.9980000  81.3660000
  35.6660000  30.0410000  82.3240000  33.7820000  30.7790000  82.7710000
  37.4260000  29.5170000  81.5320000  35.8040000  29.5960000  83.1520000
  36.2520000  24.7540000  49.7840000  36.4220000  24.0770000  51.0090000
  37.2270000  24.7480000  48.7810000  35.0070000  25.4830000  49.5520000
  37.2230000  23.5890000  51.1600000  35.4490000  24.1040000  51.9980000
  38.0410000  24.2760000  48.9110000  37.0570000  25.4280000  47.5670000
  34.0230000  25.4880000  50.5710000  34.8370000  26.1630000  48.3390000
  34.2190000  24.8280000  51.7720000  35.6210000  23.4440000  53.2520000
  38.0410000  25.4240000  46.5480000  35.8130000  26.1580000  47.3360000
  33.2090000  25.9550000  50.4270000  34.0230000  26.6350000  48.2080000
  33.2340000  24.8450000  52.8090000  36.4240000  22.9630000  53.4180000
  34.6640000  23.4870000  54.2110000  37.8450000  26.0830000  45.3480000
  38.8550000  24.9560000  46.6930000  35.6420000  26.8340000  46.1110000
  33.4460000  24.2020000  53.9820000  32.4200000  25.3140000  52.6730000
  34.8020000  23.0420000  55.0390000  38.8300000  26.0660000  44.3110000
  36.6150000  26.8070000  45.1220000  34.8410000  27.3220000  45.9590000
  32.7790000  24.2250000  54.6580000  38.6180000  26.7100000  43.1380000
  39.6440000  25.5970000  44.4470000  36.4430000  27.4670000  43.8680000
  37.4010000  27.4240000  42.9090000  39.2850000  26.6860000  42.4620000
  35.6400000  27.9480000  43.7020000  37.2620000  27.8690000  42.0810000
  36.7530000  28.0300000  63.8410000  36.9230000  27.3540000  65.0650000
  37.7290000  28.0250000  62.8370000  35.5090000  28.7590000  63.6090000
  37.7240000  26.8660000  65.2170000  35.9510000  27.3810000  66.0550000
  38.5420000  27.5530000  62.9680000  37.5580000  28.7050000  61.6240000
  34.5240000  28.7640000  64.6280000  35.3380000  29.4400000  62.3960000
  34.7200000  28.1050000  65.8290000  36.1220000  26.7210000  67.3090000
  38.5420000  28.7000000  60.6050000  36.3140000  29.4340000  61.3920000
  33.7100000  29.2320000  64.4830000  34.5240000  29.9120000  62.2650000
  33.7360000  28.1220000  66.8660000  36.9250000  26.2400000  67.4750000
  35.1650000  26.7640000  68.2680000  38.3470000  29.3600000  59.4050000
  39.3570000  28.2330000  60.7500000  36.1430000  30.1110000  60.1680000
  33.9470000  27.4780000  68.0380000  32.9210000  28.5910000  66.7300000
  35.3030000  26.3190000  69.0960000  39.3310000  29.3430000  58.3670000
  37.1160000  30.0840000  59.1780000  35.3420000  30.5990000  60.0160000
  33.2800000  27.5020000  68.7150000  39.1200000  29.9860000  57.1950000
  40.1460000  28.8740000  58.5040000  36.9440000  30.7440000  57.9250000
  37.9020000  30.7010000  56.9660000  39.7860000  29.9630000  56.5190000
  36.1420000  31.2250000  57.7590000  37.7630000  31.1460000  56.1380000
  37.3160000  35.9880000  89.5060000  37.1460000  36.6650000  88.2820000
  36.3410000  35.9930000  90.5100000  38.5610000  35.2590000  89.7380000
  36.3450000  37.1520000  88.1300000  38.1190000  36.6380000  87.2920000
  35.5270000  36.4660000  90.3790000  36.5110000  35.3130000  91.7230000
  39.5450000  35.2540000  88.7190000  38.7310000  34.5790000  90.9510000
  39.3490000  35.9130000  87.5180000  37.9470000  37.2970000  86.0380000
  35.5270000  35.3180000  92.7420000  37.7550000  34.5840000  91.9550000
  40.3590000  34.7860000  88.8640000  39.5450000  34.1060000  91.0820000
  40.3330000  35.8960000  86.4810000  37.1440000  37.7790000  85.8720000
  38.9040000  37.2540000  85.0800000  35.7230000  34.6590000  93.9420000
  34.7130000  35.7860000  92.5970000  37.9260000  33.9070000  93.1790000
  40.1220000  36.5400000  85.3090000  41.1480000  35.4280000  86.6170000
  38.7660000  37.7000000  84.2520000  34.7380000  34.6760000  94.9800000
  36.9530000  33.9340000  94.1690000  38.7270000  33.4200000  93.3310000
  40.7890000  36.5170000  84.6320000  34.9490000  34.0320000  96.1520000
  33.9240000  35.1450000  94.8430000  37.1250000  33.2750000  95.4230000
  36.1670000  33.3180000  96.3810000  34.2830000  34.0550000  96.8280000
  37.9280000  32.7930000  95.5880000  36.3060000  32.8730000  97.2090000
  36.2820000  34.9610000  19.2220000  36.1120000  35.6380000  17.9980000
  35.3070000  34.9660000  20.2260000  37.5260000  34.2320000  19.4540000
  35.3110000  36.1250000  17.8460000  37.0840000  35.6110000  17.0080000
  34.4930000  35.4390000  20.0950000  35.4770000  34.2860000  21.4390000
  38.5110000  34.2270000  18.4350000  37.6970000  33.5520000  20.6670000
  38.3150000  34.8860000  17.2340000  36.9130000  36.2710000  15.7540000
  34.4930000  34.2910000  22.4580000  36.7210000  33.5570000  21.6710000
  39.3250000  33.7590000  18.5800000  38.5110000  33.0790000  20.7980000
  39.2990000  34.8690000  16.1970000  36.1100000  36.7520000  15.5880000
  37.8700000  36.2270000  14.7950000  34.6880000  33.6320000  23.6580000
  33.6780000  34.7590000  22.3130000  36.8920000  32.8800000  22.8950000
  39.0880000  35.5130000  15.0250000  40.1140000  34.4010000  16.3330000
  37.7320000  36.6730000  13.9670000  33.7040000  33.6490000  24.6960000
  35.9190000  32.9080000  23.8850000  37.6930000  32.3930000  23.0470000
  39.7550000  35.4900000  14.3480000  33.9150000  33.0050000  25.8680000
  32.8900000  34.1180000  24.5590000  36.0910000  32.2480000  25.1380000
  35.1330000  32.2910000  26.0970000  33.2490000  33.0280000  26.5440000
  36.8940000  31.7670000  25.3040000  35.2720000  31.8460000  26.9250000
  37.2230000  36.8340000  35.7270000  37.3930000  36.1570000  36.9520000
  38.1980000  36.8290000  34.7240000  35.9780000  37.5630000  35.4960000
  38.1940000  35.6700000  37.1040000  36.4200000  36.1840000  37.9410000
  39.0120000  36.3560000  34.8550000  38.0280000  37.5090000  33.5110000
  34.9940000  37.5680000  36.5150000  35.8080000  38.2430000  34.2820000
  35.1900000  36.9090000  37.7150000  36.5920000  35.5250000  39.1950000
  39.0120000  37.5040000  32.4920000  36.7840000  38.2380000  33.2790000
  34.1800000  38.0360000  36.3700000  34.9940000  38.7160000  34.1520000
  34.2050000  36.9260000  38.7520000  37.3950000  35.0430000  39.3610000
  35.6350000  35.5680000  40.1540000  38.8160000  38.1630000  31.2910000
  39.8260000  37.0360000  32.6360000  36.6130000  38.9150000  32.0540000
  34.4170000  36.2820000  39.9250000  33.3910000  37.3940000  38.6160000
  35.7730000  35.1220000  40.9820000  39.8010000  38.1460000  30.2540000
  37.5860000  38.8870000  31.0650000  35.8120000  39.4020000  31.9030000
  33.7500000  36.3050000  40.6010000  39.5890000  38.7900000  29.0810000
  40.6150000  37.6770000  30.3900000  37.4140000  39.5470000  29.8110000
  38.3720000  39.5040000  28.8520000  40.2560000  38.7670000  28.4050000
  36.6110000  40.0290000  29.6450000  38.2330000  39.9490000  28.0240000
  38.2870000  48.0680000  75.4490000  38.1170000  48.7450000  74.2250000
  37.3120000  48.0740000  76.4530000  39.5310000  47.3390000  75.6810000
  37.3160000  49.2330000  74.0730000  39.0900000  48.7180000  73.2350000
  36.4980000  48.5460000  76.3220000  37.4820000  47.3940000  77.6660000
  40.5160000  47.3340000  74.6620000  39.7020000  46.6590000  76.8940000
  40.3200000  47.9940000  73.4620000  38.9180000  49.3780000  71.9810000
  36.4980000  47.3980000  78.6850000  38.7260000  46.6640000  77.8980000
  41.3300000  46.8670000  74.8070000  40.5160000  46.1870000  77.0250000
  41.3040000  47.9770000  72.4240000  38.1150000  49.8590000  71.8150000
  39.8750000  49.3350000  71.0230000  36.6930000  46.7390000  79.8860000
  35.6840000  47.8660000  78.5400000  38.8970000  45.9880000  79.1220000
  41.0930000  48.6200000  71.2520000  42.1190000  47.5080000  72.5610000
  39.7370000  49.7800000  70.1950000  35.7090000  46.7560000  80.9230000
  37.9240000  46.0150000  80.1120000  39.6980000  45.5000000  79.2740000
  41.7600000  48.5970000  70.5760000  35.9200000  46.1120000  82.0950000
  34.8950000  47.2250000  80.7870000  38.0960000  45.3550000  81.3660000
  37.1380000  45.3980000  82.3240000  35.2540000  46.1360000  82.7710000
  38.8990000  44.8740000  81.5320000  37.2770000  44.9530000  83.1520000
  35.7810000  31.6840000   5.1650000  35.6110000  32.3610000   3.9410000
  34.8050000  31.6890000   6.1690000  37.0250000  30.9550000   5.3970000
  34.8090000  32.8490000   3.7890000  36.5830000  32.3340000   2.9510000
  33.9920000  32.1620000   6.0380000  34.9760000  31.0090000   7.3820000
  38.0100000  30.9500000   4.3780000  37.1960000  30.2750000   6.6100000
  37.8140000  31.6100000   3.1770000  36.4110000  32.9940000   1.6970000
  33.9920000  31.0140000   8.4010000  36.2200000  30.2800000   7.6140000
  38.8240000  30.4830000   4.5230000  38.0090000  29.8030000   6.7410000
  38.7980000  31.5930000   2.1400000  35.6090000  33.4750000   1.5310000
  37.3690000  32.9510000   0.7390000  34.1870000  30.3550000   9.6010000
  33.1770000  31.4820000   8.2560000  36.3900000  29.6030000   8.8380000
  38.5870000  32.2360000   0.9680000  39.6130000  31.1240000   2.2760000
  37.2310000  33.3960000  -0.0890000  33.2030000  30.3720000  10.6390000
  35.4180000  29.6310000   9.8280000  37.1920000  29.1160000   8.9900000
  39.2530000  32.2130000   0.2920000  33.4140000  29.7280000  11.8110000
  32.3880000  30.8410000  10.5020000  35.5900000  28.9710000  11.0820000
  34.6320000  29.0140000  12.0400000  32.7480000  29.7520000  12.4870000
  36.3920000  28.4900000  11.2470000  34.7700000  28.5690000  12.8680000
  37.0180000  42.6400000  19.2220000  36.8480000  43.3160000  17.9980000
  36.0430000  42.6450000  20.2260000  38.2630000  41.9110000  19.4540000
  36.0470000  43.8040000  17.8460000  37.8210000  43.2890000  17.0080000
  35.2290000  43.1170000  20.0950000  36.2130000  41.9650000  21.4390000
  39.2470000  41.9060000  18.4350000  38.4330000  41.2300000  20.6670000
  39.0510000  42.5650000  17.2340000  37.6490000  43.9490000  15.7540000
  35.2290000  41.9700000  22.4580000  37.4570000  41.2360000  21.6710000
  40.0610000  41.4380000  18.5800000  39.2470000  40.7580000  20.7980000
  40.0360000  42.5480000  16.1970000  36.8460000  44.4300000  15.5880000
  38.6060000  43.9060000  14.7950000  35.4250000  41.3100000  23.6580000
  34.4150000  42.4370000  22.3130000  37.6280000  40.5590000  22.8950000
  39.8240000  43.1920000  15.0250000  40.8500000  42.0790000  16.3330000
  38.4680000  44.3510000  13.9670000  34.4400000  41.3270000  24.6960000
  36.6550000  40.5860000  23.8850000  38.4290000  40.0710000  23.0470000
  40.4910000  43.1680000  14.3480000  34.6520000  40.6840000  25.8680000
  33.6260000  41.7960000  24.5590000  36.8270000  39.9260000  25.1380000
  35.8690000  39.9690000  26.0970000  33.9850000  40.7070000  26.5440000
  37.6300000  39.4450000  25.3040000  36.0080000  39.5240000  26.9250000
  37.5200000  45.9170000  33.2790000  37.3490000  46.5930000  32.0540000
  36.5440000  45.9220000  34.2820000  38.7640000  45.1870000  33.5110000
  36.5480000  47.0810000  31.9030000  38.3220000  46.5660000  31.0650000
  35.7300000  46.3940000  34.1520000  36.7150000  45.2420000  35.4960000
  39.7480000  45.1830000  32.4920000  38.9340000  44.5070000  34.7240000
  39.5530000  45.8420000  31.2910000  38.1500000  47.2260000  29.8110000
  35.7300000  45.2470000  36.5150000  37.9590000  44.5120000  35.7270000
  40.5620000  44.7150000  32.6360000  39.7480000  44.0350000  34.8550000
  40.5370000  45.8250000  30.2540000  37.3470000  47.7070000  29.6450000
  39.1080000  47.1830000  28.8520000  35.9260000  44.5870000  37.7150000
  34.9160000  45.7140000  36.3700000  38.1290000  43.8360000  36.9520000
  40.3260000  46.4680000  29.0810000  41.3510000  45.3560000  30.3900000
  38.9690000  47.6280000  28.0240000  34.9420000  44.6040000  38.7520000
  37.1560000  43.8630000  37.9410000  38.9300000  43.3480000  37.1040000
  40.9920000  46.4450000  28.4050000  35.1530000  43.9610000  39.9250000
  34.1270000  45.0730000  38.6160000  37.3280000  43.2030000  39.1950000
  36.3710000  43.2460000  40.1540000  34.4860000  43.9840000  40.6010000
  38.1310000  42.7220000  39.3610000  36.5090000  42.8010000  40.9820000
  38.4600000  47.7890000  49.7840000  38.6300000  47.1130000  51.0090000
  39.4360000  47.7840000  48.7810000  37.2160000  48.5180000  49.5520000
  39.4320000  46.6250000  51.1600000  37.6580000  47.1400000  51.9980000
  40.2490000  47.3120000  48.9110000  39.2650000  48.4640000  47.5670000
  36.2310000  48.5230000  50.5710000  37.0450000  49.1990000  48.3390000
  36.4270000  47.8640000  51.7720000  37.8300000  46.4800000  53.2520000
  40.2490000  48.4590000  46.5480000  38.0210000  49.1930000  47.3360000
  35.4170000  48.9910000  50.4270000  36.2320000  49.6710000  48.2080000
  35.4430000  47.8810000  52.8090000  38.6320000  45.9990000  53.4180000
  36.8720000  46.5230000  54.2110000  40.0540000  49.1190000  45.3480000
  41.0640000  47.9920000  46.6930000  37.8510000  49.8700000  46.1110000
  35.6540000  47.2370000  53.9820000  34.6280000  48.3500000  52.6730000
  37.0100000  46.0780000  55.0390000  41.0380000  49.1020000  44.3110000
  38.8230000  49.8430000  45.1220000  37.0490000  50.3580000  45.9590000
  34.9880000  47.2610000  54.6580000  40.8270000  49.7450000  43.1380000
  41.8530000  48.6330000  44.4470000  38.6510000  50.5030000  43.8680000
  39.6090000  50.4600000  42.9090000  41.4930000  49.7220000  42.4620000
  37.8490000  50.9840000  43.7020000  39.4710000  50.9050000  42.0810000
  36.9560000  37.9590000   7.6140000  37.1270000  37.2820000   8.8380000
  37.9320000  37.9540000   6.6100000  35.7120000  38.6880000   7.3820000
  37.9280000  36.7950000   8.9900000  36.1540000  37.3090000   9.8280000
  38.7460000  37.4810000   6.7410000  37.7610000  38.6340000   5.3970000
  34.7280000  38.6930000   8.4010000  35.5410000  39.3680000   6.1690000
  34.9230000  38.0340000   9.6010000  36.3260000  36.6490000  11.0820000
  38.7460000  38.6290000   4.3780000  36.5170000  39.3630000   5.1650000
  33.9130000  39.1610000   8.2560000  34.7280000  39.8410000   6.0380000
  33.9390000  38.0500000  10.6390000  37.1280000  36.1680000  11.2470000
  35.3680000  36.6920000  12.0400000  38.5500000  39.2880000   3.1770000
  39.5600000  38.1610000   4.5230000  36.3470000  40.0400000   3.9410000
  34.1500000  37.4070000  11.8110000  33.1240000  38.5190000  10.5020000
  35.5070000  36.2470000  12.8680000  39.5340000  39.2710000   2.1400000
  37.3190000  40.0120000   2.9510000  35.5460000  40.5270000   3.7890000
  33.4840000  37.4300000  12.4870000  39.3230000  39.9150000   0.9680000
  40.3490000  38.8020000   2.2760000  37.1480000  40.6720000   1.6970000
  38.1050000  40.6290000   0.7390000  39.9900000  39.8920000   0.2920000
  36.3450000  41.1530000   1.5310000  37.9670000  41.0740000  -0.0890000
  38.9610000  51.0660000  63.8410000  39.1320000  50.3890000  65.0650000
  39.9370000  51.0610000  62.8370000  37.7170000  51.7950000  63.6090000
  39.9330000  49.9020000  65.2170000  38.1590000  50.4170000  66.0550000
  40.7510000  50.5890000  62.9680000  39.7660000  51.7410000  61.6240000
  36.7330000  51.8000000  64.6280000  37.5460000  52.4750000  62.3960000
  36.9280000  51.1410000  65.8290000  38.3310000  49.7570000  67.3090000
  40.7510000  51.7360000  60.6050000  38.5220000  52.4700000  61.3920000
  35.9180000  52.2680000  64.4830000  36.7330000  52.9480000  62.2650000
  35.9440000  51.1580000  66.8660000  39.1330000  49.2760000  67.4750000
  37.3730000  49.8000000  68.2680000  40.5550000  52.3950000  59.4050000
  41.5650000  51.2690000  60.7500000  38.3520000  53.1470000  60.1680000
  36.1550000  50.5140000  68.0380000  35.1290000  51.6270000  66.7300000
  37.5120000  49.3550000  69.0960000  41.5390000  52.3790000  58.3670000
  39.3240000  53.1200000  59.1780000  37.5510000  53.6340000  60.0160000
  35.4890000  50.5370000  68.7150000  41.3280000  53.0220000  57.1950000
  42.3540000  51.9100000  58.5040000  39.1530000  53.7800000  57.9250000
  40.1100000  53.7370000  56.9660000  41.9950000  52.9990000  56.5190000
  38.3500000  54.2610000  57.7590000  39.9720000  54.1820000  56.1380000
  38.2560000  53.5950000  33.2790000  38.0850000  54.2720000  32.0540000
  37.2800000  53.6000000  34.2820000  39.5000000  52.8660000  33.5110000
  37.2840000  54.7590000  31.9030000  39.0580000  54.2450000  31.0650000
  36.4660000  54.0730000  34.1520000  37.4510000  52.9200000  35.4960000
  40.4840000  52.8610000  32.4920000  39.6710000  52.1860000  34.7240000
  40.2890000  53.5200000  31.2910000  38.8860000  54.9050000  29.8110000
  36.4660000  52.9250000  36.5150000  38.6950000  52.1910000  35.7270000
  41.2990000  52.3930000  32.6360000  40.4840000  51.7130000  34.8550000
  41.2730000  53.5040000  30.2540000  38.0840000  55.3860000  29.6450000
  39.8440000  54.8620000  28.8520000  36.6620000  52.2660000  37.7150000
  35.6520000  53.3930000  36.3700000  38.8650000  51.5140000  36.9520000
  41.0620000  54.1470000  29.0810000  42.0880000  53.0350000  30.3900000
  39.7050000  55.3070000  28.0240000  35.6780000  52.2830000  38.7520000
  37.8930000  51.5420000  37.9410000  39.6660000  51.0270000  37.1040000
  41.7280000  54.1240000  28.4050000  35.8890000  51.6390000  39.9250000
  34.8630000  52.7520000  38.6160000  38.0640000  50.8820000  39.1950000
  37.1070000  50.9250000  40.1540000  35.2220000  51.6620000  40.6010000
  38.8670000  50.4010000  39.3610000  37.2450000  50.4800000  40.9820000
  39.1960000  55.4680000  49.7840000  39.3660000  54.7910000  51.0090000
  40.1720000  55.4630000  48.7810000  37.9520000  56.1970000  49.5520000
  40.1680000  54.3040000  51.1600000  38.3940000  54.8180000  51.9980000
  40.9850000  54.9900000  48.9110000  40.0010000  56.1430000  47.5670000
  36.9680000  56.2020000  50.5710000  37.7810000  56.8770000  48.3390000
  37.1630000  55.5430000  51.7720000  38.5660000  54.1590000  53.2520000
  40.9860000  56.1380000  46.5480000  38.7570000  56.8720000  47.3360000
  36.1530000  56.6700000  50.4270000  36.9680000  57.3500000  48.2080000
  36.1790000  55.5600000  52.8090000  39.3680000  53.6770000  53.4180000
  37.6080000  54.2020000  54.2110000  40.7900000  56.7970000  45.3480000
  41.8000000  55.6700000  46.6930000  38.5870000  57.5490000  46.1110000
  36.3900000  54.9160000  53.9820000  35.3640000  56.0280000  52.6730000
  37.7460000  53.7560000  55.0390000  41.7740000  56.7800000  44.3110000
  39.5590000  57.5220000  45.1220000  37.7850000  58.0360000  45.9590000
  35.7240000  54.9390000  54.6580000  41.5630000  57.4240000  43.1380000
  42.5890000  56.3110000  44.4470000  39.3870000  58.1810000  43.8680000
  40.3450000  58.1380000  42.9090000  42.2290000  57.4010000  42.4620000
  38.5850000  58.6630000  43.7020000  40.2070000  58.5830000  42.0810000
  38.9300000  56.5930000  21.6710000  39.1000000  55.9160000  22.8950000
  39.9050000  56.5880000  20.6670000  37.6860000  57.3220000  21.4390000
  39.9010000  55.4290000  23.0470000  38.1270000  55.9430000  23.8850000
  40.7190000  56.1150000  20.7980000  39.7350000  57.2680000  19.4540000
  36.7010000  57.3270000  22.4580000  37.5150000  58.0020000  20.2260000
  36.8970000  56.6680000  23.6580000  38.2990000  55.2830000  25.1380000
  40.7190000  57.2630000  18.4350000  38.4910000  57.9970000  19.2220000
  35.8870000  57.7950000  22.3130000  36.7010000  58.4750000  20.0950000
  35.9130000  56.6840000  24.6960000  39.1020000  54.8020000  25.3040000
  37.3420000  55.3260000  26.0970000  40.5240000  57.9220000  17.2340000
  41.5330000  56.7950000  18.5800000  38.3200000  58.6740000  17.9980000
  36.1240000  56.0410000  25.8680000  35.0980000  57.1530000  24.5590000
  37.4800000  54.8810000  26.9250000  41.5080000  57.9050000  16.1970000
  39.2930000  58.6460000  17.0080000  37.5190000  59.1610000  17.8460000
  35.4570000  56.0640000  26.5440000  41.2970000  58.5490000  15.0250000
  42.3220000  57.4360000  16.3330000  39.1210000  59.3060000  15.7540000
  40.0790000  59.2630000  14.7950000  41.9630000  58.5260000  14.3480000
  38.3180000  59.7870000  15.5880000  39.9400000  59.7080000  13.9670000
  39.4310000  59.8700000  35.7270000  39.6010000  59.1930000  36.9520000
  40.4070000  59.8650000  34.7240000  38.1870000  60.5990000  35.4960000
  40.4030000  58.7050000  37.1040000  38.6290000  59.2200000  37.9410000
  41.2200000  59.3920000  34.8550000  40.2360000  60.5450000  33.5110000
  37.2020000  60.6040000  36.5150000  38.0160000  61.2790000  34.2820000
  37.3980000  59.9440000  37.7150000  38.8010000  58.5600000  39.1950000
  41.2200000  60.5400000  32.4920000  38.9920000  61.2740000  33.2790000
  36.3880000  61.0710000  36.3700000  37.2030000  61.7510000  34.1520000
  36.4140000  59.9610000  38.7520000  39.6030000  58.0790000  39.3610000
  37.8430000  58.6030000  40.1540000  41.0250000  61.1990000  31.2910000
  42.0350000  60.0720000  32.6360000  38.8220000  61.9500000  32.0540000
  36.6250000  59.3180000  39.9250000  35.5990000  60.4300000  38.6160000
  37.9810000  58.1580000  40.9820000  42.0090000  61.1820000  30.2540000
  39.7940000  61.9230000  31.0650000  38.0200000  62.4380000  31.9030000
  35.9590000  59.3410000  40.6010000  41.7980000  61.8260000  29.0810000
  42.8240000  60.7130000  30.3900000  39.6220000  62.5830000  29.8110000
  40.5800000  62.5400000  28.8520000  42.4640000  61.8020000  28.4050000
  38.8200000  63.0640000  29.6450000  40.4420000  62.9850000  28.0240000
  39.4930000  64.5510000  47.3360000  39.3230000  65.2270000  46.1110000
  38.5170000  64.5560000  48.3390000  40.7370000  63.8210000  47.5670000
  38.5220000  65.7150000  45.9590000  40.2950000  65.2000000  45.1220000
  37.7040000  65.0280000  48.2080000  38.6880000  63.8760000  49.5520000
  41.7220000  63.8170000  46.5480000  40.9080000  63.1410000  48.7810000
  41.5260000  64.4760000  45.3480000  40.1240000  65.8600000  43.8680000
  37.7040000  63.8810000  50.5710000  39.9320000  63.1460000  49.7840000
  42.5360000  63.3490000  46.6930000  41.7220000  62.6690000  48.9110000
  42.5100000  64.4590000  44.3110000  39.3210000  66.3410000  43.7020000
  41.0810000  65.8170000  42.9090000  37.8990000  63.2210000  51.7720000
  36.8890000  64.3480000  50.4270000  40.1030000  62.4700000  51.0090000
  42.2990000  65.1020000  43.1380000  43.3250000  63.9900000  44.4470000
  40.9430000  66.2620000  42.0810000  36.9150000  63.2380000  52.8090000
  39.1300000  62.4970000  51.9980000  40.9040000  61.9820000  51.1600000
  42.9660000  65.0790000  42.4620000  37.1260000  62.5950000  53.9820000
  36.1000000  63.7070000  52.6730000  39.3020000  61.8370000  53.2520000
  38.3440000  61.8800000  54.2110000  36.4600000  62.6180000  54.6580000
  40.1040000  61.3560000  53.4180000  38.4830000  61.4350000  55.0390000
  38.4280000  53.3160000   7.6140000  38.5990000  52.6390000   8.8380000
  39.4040000  53.3110000   6.6100000  37.1840000  54.0450000   7.3820000
  39.4000000  52.1520000   8.9900000  37.6260000  52.6660000   9.8280000
  40.2180000  52.8380000   6.7410000  39.2340000  53.9910000   5.3970000
  36.2000000  54.0500000   8.4010000  37.0140000  54.7250000   6.1690000
  36.3960000  53.3910000   9.6010000  37.7980000  52.0070000  11.0820000
  40.2180000  53.9860000   4.3780000  37.9890000  54.7200000   5.1650000
  35.3860000  54.5180000   8.2560000  36.2000000  55.1980000   6.0380000
  35.4110000  53.4080000  10.6390000  38.6010000  51.5250000  11.2470000
  36.8400000  52.0500000  12.0400000  40.0220000  54.6450000   3.1770000
  41.0320000  53.5180000   4.5230000  37.8190000  55.3970000   3.9410000
  35.6220000  52.7640000  11.8110000  34.5970000  53.8770000  10.5020000
  36.9790000  51.6050000  12.8680000  41.0060000  54.6280000   2.1400000
  38.7920000  55.3700000   2.9510000  37.0180000  55.8840000   3.7890000
  34.9560000  52.7870000  12.4870000  40.7950000  55.2720000   0.9680000
  41.8210000  54.1600000   2.2760000  38.6200000  56.0290000   1.6970000
  39.5770000  55.9860000   0.7390000  41.4620000  55.2490000   0.2920000
  37.8170000  56.5110000   1.5310000  39.4390000  56.4320000  -0.0890000
  39.9940000  67.8270000  61.3920000  39.8240000  68.5040000  60.1680000
  39.0190000  67.8330000  62.3960000  41.2390000  67.0980000  61.6240000
  39.0230000  68.9920000  60.0160000  40.7970000  68.4770000  59.1780000
  38.2050000  68.3050000  62.2650000  39.1890000  67.1520000  63.6090000
  42.2230000  67.0930000  60.6050000  41.4090000  66.4180000  62.8370000
  42.0270000  67.7530000  59.4050000  40.6250000  69.1370000  57.9250000
  38.2050000  67.1570000  64.6280000  40.4330000  66.4230000  63.8410000
  43.0370000  66.6260000  60.7500000  42.2230000  65.9460000  62.9680000
  43.0120000  67.7360000  58.3670000  39.8220000  69.6180000  57.7590000
  41.5820000  69.0940000  56.9660000  38.4010000  66.4980000  65.8290000
  37.3910000  67.6250000  64.4830000  40.6040000  65.7470000  65.0650000
  42.8000000  68.3790000  57.1950000  43.8260000  67.2670000  58.5040000
  41.4440000  69.5390000  56.1380000  37.4160000  66.5150000  66.8660000
  39.6310000  65.7740000  66.0550000  41.4050000  65.2590000  65.2170000
  43.4670000  68.3560000  56.5190000  37.6280000  65.8710000  68.0380000
  36.6020000  66.9840000  66.7300000  39.8030000  65.1140000  67.3090000
  38.8450000  65.1570000  68.2680000  36.9610000  65.8950000  68.7150000
  40.6060000  64.6330000  67.4750000  38.9840000  64.7120000  69.0960000
  40.1670000  67.5480000  35.7270000  40.3370000  66.8720000  36.9520000
  41.1430000  67.5430000  34.7240000  38.9230000  68.2770000  35.4960000
  41.1390000  66.3840000  37.1040000  39.3650000  66.8990000  37.9410000
  41.9560000  67.0710000  34.8550000  40.9720000  68.2230000  33.5110000
  37.9390000  68.2820000  36.5150000  38.7520000  68.9580000  34.2820000
  38.1340000  67.6230000  37.7150000  39.5370000  66.2390000  39.1950000
  41.9570000  68.2180000  32.4920000  39.7280000  68.9520000  33.2790000
  37.1240000  68.7500000  36.3700000  37.9390000  69.4300000  34.1520000
  37.1500000  67.6400000  38.7520000  40.3390000  65.7580000  39.3610000
  38.5790000  66.2820000  40.1540000  41.7610000  68.8780000  31.2910000
  42.7710000  67.7510000  32.6360000  39.5580000  69.6290000  32.0540000
  37.3610000  66.9960000  39.9250000  36.3350000  68.1090000  38.6160000
  38.7170000  65.8370000  40.9820000  42.7450000  68.8610000  30.2540000
  40.5300000  69.6020000  31.0650000  38.7560000  70.1170000  31.9030000
  36.6950000  67.0200000  40.6010000  42.5340000  69.5040000  29.0810000
  43.5600000  68.3920000  30.3900000  40.3580000  70.2620000  29.8110000
  41.3160000  70.2190000  28.8520000  43.2000000  69.4810000  28.4050000
  39.5560000  70.7430000  29.6450000  41.1780000  70.6640000  28.0240000
  40.6680000  70.8250000  49.7840000  40.8390000  70.1480000  51.0090000
  41.6440000  70.8200000  48.7810000  39.4240000  71.5540000  49.5520000
  41.6400000  69.6610000  51.1600000  39.8660000  70.1760000  51.9980000
  42.4580000  70.3470000  48.9110000  41.4730000  71.5000000  47.5670000
  38.4400000  71.5590000  50.5710000  39.2540000  72.2340000  48.3390000
  38.6350000  70.9000000  51.7720000  40.0380000  69.5160000  53.2520000
  42.4580000  71.4950000  46.5480000  40.2290000  72.2290000  47.3360000
  37.6250000  72.0270000  50.4270000  38.4400000  72.7070000  48.2080000
  37.6510000  70.9170000  52.8090000  40.8410000  69.0350000  53.4180000
  39.0800000  69.5590000  54.2110000  42.2620000  72.1540000  45.3480000
  43.2720000  71.0270000  46.6930000  40.0590000  72.9060000  46.1110000
  37.8620000  70.2730000  53.9820000  36.8360000  71.3860000  52.6730000
  39.2190000  69.1140000  55.0390000  43.2460000  72.1380000  44.3110000
  41.0310000  72.8790000  45.1220000  39.2580000  73.3930000  45.9590000
  37.1960000  70.2960000  54.6580000  43.0350000  72.7810000  43.1380000
  44.0610000  71.6690000  44.4470000  40.8600000  73.5390000  43.8680000
  41.8170000  73.4960000  42.9090000  43.7020000  72.7580000  42.4620000
  40.0570000  74.0200000  43.7020000  41.6790000  73.9410000  42.0810000
  41.1700000  74.1020000  63.8410000  41.3400000  73.4250000  65.0650000
  42.1450000  74.0970000  62.8370000  39.9250000  74.8310000  63.6090000
  42.1410000  72.9380000  65.2170000  40.3670000  73.4520000  66.0550000
  42.9590000  73.6240000  62.9680000  41.9750000  74.7770000  61.6240000
  38.9410000  74.8360000  64.6280000  39.7550000  75.5110000  62.3960000
  39.1370000  74.1770000  65.8290000  40.5390000  72.7930000  67.3090000
  42.9590000  74.7720000  60.6050000  40.7310000  75.5060000  61.3920000
  38.1270000  75.3040000  64.4830000  38.9410000  75.9840000  62.2650000
  38.1520000  74.1940000  66.8660000  41.3420000  72.3110000  67.4750000
  39.5820000  72.8360000  68.2680000  42.7630000  75.4310000  59.4050000
  43.7730000  74.3040000  60.7500000  40.5600000  76.1830000  60.1680000
  38.3640000  73.5500000  68.0380000  37.3380000  74.6620000  66.7300000
  39.7200000  72.3910000  69.0960000  43.7480000  75.4140000  58.3670000
  41.5330000  76.1560000  59.1780000  39.7590000  76.6700000  60.0160000
  37.6970000  73.5730000  68.7150000  43.5360000  76.0580000  57.1950000
  44.5620000  74.9460000  58.5040000  41.3610000  76.8150000  57.9250000
  42.3190000  76.7720000  56.9660000  44.2030000  76.0350000  56.5190000
  40.5580000  77.2970000  57.7590000  42.1800000  77.2170000  56.1380000
  40.4640000  76.6310000  33.2790000  40.2940000  77.3080000  32.0540000
  39.4880000  76.6360000  34.2820000  41.7080000  75.9020000  33.5110000
  39.4930000  77.7950000  31.9030000  41.2660000  77.2800000  31.0650000
  38.6750000  77.1090000  34.1520000  39.6590000  75.9560000  35.4960000
  42.6930000  75.8970000  32.4920000  41.8790000  75.2220000  34.7240000
  42.4970000  76.5560000  31.2910000  41.0950000  77.9400000  29.8110000
  38.6750000  75.9610000  36.5150000  40.9030000  75.2270000  35.7270000
  43.5070000  75.4290000  32.6360000  42.6930000  74.7490000  34.8550000
  43.4810000  76.5390000  30.2540000  40.2920000  78.4210000  29.6450000
  42.0520000  77.8970000  28.8520000  38.8700000  75.3020000  37.7150000
  37.8600000  76.4290000  36.3700000  41.0740000  74.5500000  36.9520000
  43.2700000  77.1830000  29.0810000  44.2960000  76.0700000  30.3900000
  41.9140000  78.3420000  28.0240000  37.8860000  75.3190000  38.7520000
  40.1010000  74.5770000  37.9410000  41.8750000  74.0630000  37.1040000
  43.9370000  77.1600000  28.4050000  38.0970000  74.6750000  39.9250000
  37.0710000  75.7870000  38.6160000  40.2730000  73.9170000  39.1950000
  39.3150000  73.9610000  40.1540000  37.4310000  74.6980000  40.6010000
  41.0750000  73.4360000  39.3610000  39.4540000  73.5150000  40.9820000
  41.4040000  78.5040000  49.7840000  41.5750000  77.8270000  51.0090000
  42.3800000  78.4990000  48.7810000  40.1600000  79.2330000  49.5520000
  42.3760000  77.3390000  51.1600000  40.6020000  77.8540000  51.9980000
  43.1940000  78.0260000  48.9110000  42.2100000  79.1790000  47.5670000
  39.1760000  79.2380000  50.5710000  39.9900000  79.9130000  48.3390000
  39.3720000  78.5780000  51.7720000  40.7740000  77.1940000  53.2520000
  43.1940000  79.1740000  46.5480000  40.9650000  79.9080000  47.3360000
  38.3620000  79.7050000  50.4270000  39.1760000  80.3850000  48.2080000
  38.3870000  78.5950000  52.8090000  41.5770000  76.7130000  53.4180000
  39.8160000  77.2370000  54.2110000  42.9980000  79.8330000  45.3480000
  44.0080000  78.7060000  46.6930000  40.7950000  80.5850000  46.1110000
  38.5990000  77.9520000  53.9820000  37.5730000  79.0640000  52.6730000
  39.9550000  76.7920000  55.0390000  43.9830000  79.8160000  44.3110000
  41.7680000  80.5570000  45.1220000  39.9940000  81.0720000  45.9590000
  37.9320000  77.9750000  54.6580000  43.7710000  80.4600000  43.1380000
  44.7970000  79.3470000  44.4470000  41.5960000  81.2170000  43.8680000
  42.5530000  81.1740000  42.9090000  44.4380000  80.4360000  42.4620000
  40.7930000  81.6980000  43.7020000  42.4150000  81.6190000  42.0810000
  41.9680000  86.4610000  75.4490000  41.7980000  87.1380000  74.2250000
  40.9920000  86.4670000  76.4530000  43.2120000  85.7320000  75.6810000
  40.9960000  87.6260000  74.0730000  42.7700000  87.1110000  73.2350000
  40.1790000  86.9390000  76.3220000  41.1630000  85.7860000  77.6660000
  44.1960000  85.7270000  74.6620000  43.3830000  85.0520000  76.8940000
  44.0010000  86.3870000  73.4620000  42.5980000  87.7710000  71.9810000
  40.1780000  85.7910000  78.6850000  42.4070000  85.0570000  77.8980000
  45.0110000  85.2600000  74.8070000  44.1960000  84.5800000  77.0250000
  44.9850000  86.3700000  72.4240000  41.7960000  88.2520000  71.8150000
  43.5560000  87.7280000  71.0230000  40.3740000  85.1320000  79.8860000
  39.3640000  86.2590000  78.5400000  42.5770000  84.3810000  79.1220000
  44.7740000  87.0130000  71.2520000  45.8000000  85.9010000  72.5610000
  43.4180000  88.1730000  70.1950000  39.3900000  85.1490000  80.9230000
  41.6050000  84.4080000  80.1120000  43.3790000  83.8930000  79.2740000
  45.4400000  86.9900000  70.5760000  39.6010000  84.5050000  82.0950000
  38.5750000  85.6180000  80.7870000  41.7770000  83.7480000  81.3660000
  40.8190000  83.7910000  82.3240000  38.9350000  84.5290000  82.7710000
  42.5790000  83.2670000  81.5320000  40.9570000  83.3460000  83.1520000
  42.4690000  89.7380000  89.5060000  42.2990000  90.4150000  88.2820000
  41.4930000  89.7430000  90.5100000  43.7130000  89.0090000  89.7380000
  41.4980000  90.9030000  88.1300000  43.2710000  90.3880000  87.2920000
  40.6800000  90.2160000  90.3790000  41.6640000  89.0630000  91.7230000
  44.6980000  89.0040000  88.7190000  43.8840000  88.3290000  90.9510000
  44.5020000  89.6630000  87.5180000  43.1000000  91.0480000  86.0380000
  40.6800000  89.0680000  92.7420000  42.9080000  88.3340000  91.9550000
  45.5120000  88.5370000  88.8640000  44.6980000  87.8570000  91.0820000
  45.4860000  89.6470000  86.4810000  42.2970000  91.5290000  85.8720000
  44.0570000  91.0050000  85.0800000  40.8750000  88.4090000  93.9420000
  39.8650000  89.5360000  92.5970000  43.0790000  87.6570000  93.1790000
  45.2750000  90.2900000  85.3090000  46.3010000  89.1780000  86.6170000
  43.9190000  91.4500000  84.2520000  39.8910000  88.4260000  94.9800000
  42.1060000  87.6850000  94.1690000  43.8800000  87.1700000  93.3310000
  45.9420000  90.2670000  84.6320000  40.1020000  87.7820000  96.1520000
  39.0760000  88.8950000  94.8430000  42.2780000  87.0250000  95.4230000
  41.3200000  87.0680000  96.3810000  39.4360000  87.8060000  96.8280000
  43.0800000  86.5440000  95.5880000  41.4590000  86.6230000  97.2090000
  42.1400000  86.1820000  49.7840000  42.3110000  85.5060000  51.0090000
  43.1160000  86.1770000  48.7810000  40.8960000  86.9110000  49.5520000
  43.1120000  85.0180000  51.1600000  41.3380000  85.5330000  51.9980000
  43.9300000  85.7050000  48.9110000  42.9460000  86.8570000  47.5670000
  39.9120000  86.9160000  50.5710000  40.7260000  87.5920000  48.3390000
  40.1080000  86.2570000  51.7720000  41.5100000  84.8730000  53.2520000
  43.9300000  86.8520000  46.5480000  41.7020000  87.5860000  47.3360000
  39.0980000  87.3840000  50.4270000  39.9120000  88.0640000  48.2080000
  39.1230000  86.2740000  52.8090000  42.3130000  84.3920000  53.4180000
  40.5520000  84.9160000  54.2110000  43.7340000  87.5120000  45.3480000
  44.7440000  86.3850000  46.6930000  41.5310000  88.2630000  46.1110000
  39.3350000  85.6300000  53.9820000  38.3090000  86.7430000  52.6730000
  40.6910000  84.4710000  55.0390000  44.7190000  87.4950000  44.3110000
  42.5040000  88.2360000  45.1220000  40.7300000  88.7510000  45.9590000
  38.6680000  85.6540000  54.6580000  44.5070000  88.1380000  43.1380000
  45.5330000  87.0260000  44.4470000  42.3320000  88.8960000  43.8680000
  43.2900000  88.8530000  42.9090000  45.1740000  88.1150000  42.4620000
  41.5290000  89.3770000  43.7020000  43.1510000  89.2980000  42.0810000
  43.1430000  92.7360000  77.8980000  43.3130000  92.0590000  79.1220000
  44.1190000  92.7310000  76.8940000  41.8990000  93.4650000  77.6660000
  44.1150000  91.5720000  79.2740000  42.3410000  92.0860000  80.1120000
  44.9320000  92.2580000  77.0250000  43.9480000  93.4110000  75.6810000
  40.9150000  93.4700000  78.6850000  41.7280000  94.1450000  76.4530000
  41.1100000  92.8110000  79.8860000  42.5130000  91.4270000  81.3660000
  44.9330000  93.4060000  74.6620000  42.7040000  94.1400000  75.4490000
  40.1000000  93.9380000  78.5400000  40.9150000  94.6180000  76.3220000
  40.1260000  92.8280000  80.9230000  43.3150000  90.9450000  81.5320000
  41.5550000  91.4700000  82.3240000  44.7370000  94.0650000  73.4620000
  45.7470000  92.9380000  74.8070000  42.5340000  94.8170000  74.2250000
  40.3370000  92.1840000  82.0950000  39.3110000  93.2960000  80.7870000
  41.6930000  91.0250000  83.1520000  45.7210000  94.0480000  72.4240000
  43.5060000  94.7900000  73.2350000  41.7320000  95.3040000  74.0730000
  39.6710000  92.2070000  82.7710000  45.5100000  94.6920000  71.2520000
  46.5360000  93.5800000  72.5610000  43.3340000  95.4490000  71.9810000
  44.2920000  95.4060000  71.0230000  46.1760000  94.6690000  70.5760000
  42.5320000  95.9310000  71.8150000  44.1540000  95.8510000  70.1950000
  37.2850000  41.5150000  47.3360000  37.1140000  42.1920000  46.1110000
  36.3090000  41.5200000  48.3390000  38.5290000  40.7860000  47.5670000
  36.3130000  42.6790000  45.9590000  38.0870000  42.1640000  45.1220000
  35.4950000  41.9920000  48.2080000  36.4800000  40.8400000  49.5520000
  39.5130000  40.7810000  46.5480000  38.7000000  40.1060000  48.7810000
  39.3180000  41.4400000  45.3480000  37.9150000  42.8240000  43.8680000
  35.4950000  40.8450000  50.5710000  37.7240000  40.1110000  49.7840000
  40.3280000  40.3130000  46.6930000  39.5130000  39.6330000  48.9110000
  40.3020000  41.4230000  44.3110000  37.1130000  43.3050000  43.7020000
  38.8730000  42.7810000  42.9090000  35.6910000  40.1860000  51.7720000
  34.6810000  41.3120000  50.4270000  37.8940000  39.4340000  51.0090000
  40.0910000  42.0670000  43.1380000  41.1170000  40.9540000  44.4470000
  38.7340000  43.2260000  42.0810000  34.7070000  40.2020000  52.8090000
  36.9220000  39.4610000  51.9980000  38.6950000  38.9460000  51.1600000
  40.7570000  42.0430000  42.4620000  34.9180000  39.5590000  53.9820000
  33.8920000  40.6710000  52.6730000  37.0930000  38.8010000  53.2520000
  36.1360000  38.8440000  54.2110000  34.2510000  39.5820000  54.6580000
  37.8960000  38.3200000  53.4180000  36.2740000  38.3990000  55.0390000
  37.6920000  45.6370000   7.6140000  37.8630000  44.9610000   8.8380000
  38.6680000  45.6320000   6.6100000  36.4480000  46.3670000   7.3820000
  38.6640000  44.4730000   8.9900000  36.8900000  44.9880000   9.8280000
  39.4820000  45.1600000   6.7410000  38.4970000  46.3120000   5.3970000
  35.4640000  46.3710000   8.4010000  36.2780000  47.0470000   6.1690000
  35.6590000  45.7120000   9.6010000  37.0620000  44.3280000  11.0820000
  39.4820000  46.3070000   4.3780000  37.2530000  47.0420000   5.1650000
  34.6490000  46.8390000   8.2560000  35.4640000  47.5190000   6.0380000
  34.6750000  45.7290000  10.6390000  37.8650000  43.8470000  11.2470000
  36.1040000  44.3710000  12.0400000  39.2860000  46.9670000   3.1770000
  40.2960000  45.8400000   4.5230000  37.0830000  47.7180000   3.9410000
  34.8860000  45.0860000  11.8110000  33.8600000  46.1980000  10.5020000
  36.2430000  43.9260000  12.8680000  40.2700000  46.9500000   2.1400000
  38.0550000  47.6910000   2.9510000  36.2820000  48.2060000   3.7890000
  34.2200000  45.1090000  12.4870000  40.0590000  47.5930000   0.9680000
  41.0850000  46.4810000   2.2760000  37.8840000  48.3510000   1.6970000
  38.8410000  48.3080000   0.7390000  40.7260000  47.5700000   0.2920000
  37.0810000  48.8320000   1.5310000  38.7030000  48.7530000  -0.0890000
  41.4360000  72.9770000  91.9550000  41.6060000  72.3000000  93.1790000
  42.4120000  72.9720000  90.9510000  40.1920000  73.7060000  91.7230000
  42.4080000  71.8130000  93.3310000  40.6340000  72.3270000  94.1690000
  43.2250000  72.4990000  91.0820000  42.2410000  73.6520000  89.7380000
  39.2070000  73.7110000  92.7420000  40.0210000  74.3860000  90.5100000
  39.4030000  73.0520000  93.9420000  40.8060000  71.6680000  95.4230000
  43.2250000  73.6470000  88.7190000  40.9970000  74.3810000  89.5060000
  38.3930000  74.1790000  92.5970000  39.2080000  74.8590000  90.3790000
  38.4190000  73.0690000  94.9800000  41.6080000  71.1860000  95.5880000
  39.8480000  71.7110000  96.3810000  43.0300000  74.3060000  87.5180000
  44.0400000  73.1790000  88.8640000  40.8270000  75.0580000  88.2820000
  38.6300000  72.4250000  96.1520000  37.6040000  73.5380000  94.8430000
  39.9860000  71.2660000  97.2090000  44.0140000  74.2890000  86.4810000
  41.7990000  75.0310000  87.2920000  40.0250000  75.5450000  88.1300000
  37.9640000  72.4480000  96.8280000  43.8030000  74.9330000  85.3090000
  44.8290000  73.8210000  86.6170000  41.6270000  75.6900000  86.0380000
  42.5850000  75.6470000  85.0800000  44.4690000  74.9100000  84.6320000
  40.8250000  76.1720000  85.8720000  42.4470000  76.0930000  84.2520000
  41.4670000  83.1850000  61.3920000  41.2960000  83.8610000  60.1680000
  40.4910000  83.1900000  62.3960000  42.7110000  82.4550000  61.6240000
  40.4950000  84.3490000  60.0160000  42.2690000  83.8340000  59.1780000
  39.6770000  83.6620000  62.2650000  40.6620000  82.5100000  63.6090000
  43.6950000  82.4510000  60.6050000  42.8810000  81.7750000  62.8370000
  43.5000000  83.1100000  59.4050000  42.0970000  84.4940000  57.9250000
  39.6770000  82.5150000  64.6280000  41.9060000  81.7810000  63.8410000
  44.5090000  81.9830000  60.7500000  43.6950000  81.3030000  62.9680000
  44.4840000  83.0930000  58.3670000  41.2940000  84.9750000  57.7590000
  43.0550000  84.4510000  56.9660000  39.8730000  81.8550000  65.8290000
  38.8630000  82.9820000  64.4830000  42.0760000  81.1040000  65.0650000
  44.2730000  83.7370000  57.1950000  45.2980000  82.6240000  58.5040000
  42.9160000  84.8960000  56.1380000  38.8890000  81.8720000  66.8660000
  41.1030000  81.1310000  66.0550000  42.8770000  80.6160000  65.2170000
  44.9390000  83.7130000  56.5190000  39.1000000  81.2290000  68.0380000
  38.0740000  82.3410000  66.7300000  41.2750000  80.4710000  67.3090000
  40.3180000  80.5140000  68.2680000  38.4330000  81.2520000  68.7150000
  42.0780000  79.9900000  67.4750000  40.4560000  80.0690000  69.0960000
  42.2030000  90.8630000  61.3920000  42.0320000  91.5400000  60.1680000
  41.2270000  90.8680000  62.3960000  43.4470000  90.1340000  61.6240000
  41.2310000  92.0270000  60.0160000  43.0050000  91.5130000  59.1780000
  40.4130000  91.3410000  62.2650000  41.3980000  90.1880000  63.6090000
  44.4310000  90.1290000  60.6050000  43.6180000  89.4540000  62.8370000
  44.2360000  90.7880000  59.4050000  42.8330000  92.1730000  57.9250000
  40.4130000  90.1930000  64.6280000  42.6420000  89.4590000  63.8410000
  45.2460000  89.6620000  60.7500000  44.4310000  88.9810000  62.9680000
  45.2200000  90.7720000  58.3670000  42.0310000  92.6540000  57.7590000
  43.7910000  92.1300000  56.9660000  40.6090000  89.5340000  65.8290000
  39.5990000  90.6610000  64.4830000  42.8120000  88.7820000  65.0650000
  45.0090000  91.4150000  57.1950000  46.0350000  90.3030000  58.5040000
  43.6520000  92.5750000  56.1380000  39.6250000  89.5510000  66.8660000
  41.8400000  88.8100000  66.0550000  43.6130000  88.2950000  65.2170000
  45.6750000  91.3920000  56.5190000  39.8360000  88.9070000  68.0380000
  38.8100000  90.0200000  66.7300000  42.0110000  88.1500000  67.3090000
  41.0540000  88.1930000  68.2680000  39.1690000  88.9300000  68.7150000
  42.8140000  87.6690000  67.4750000  41.1920000  87.7480000  69.0960000
  41.2650000  53.5410000  19.0350000  41.1090000  53.6610000  17.6430000
  40.2840000  52.9840000  19.8660000  42.4960000  54.0290000  19.6390000
  40.3070000  53.3430000  17.2430000  42.0850000  54.2260000  16.8340000
  39.4710000  52.6670000  19.4930000  40.4630000  52.8820000  21.2530000
  43.4880000  54.6010000  18.8070000  42.6750000  53.9270000  21.0270000
  43.3090000  54.7020000  17.4320000  41.9210000  54.3510000  15.4110000
  39.4720000  52.3100000  22.0850000  41.6940000  53.3700000  21.8580000
  44.2930000  54.9220000  19.1970000  43.4890000  54.2440000  21.3990000
  44.3050000  55.2880000  16.5690000  41.1210000  54.0450000  14.9990000
  42.9000000  54.9020000  14.6490000  39.6500000  52.2090000  23.4600000
  38.6660000  51.9890000  21.6960000  41.8510000  53.2510000  23.2490000
  44.1070000  55.3850000  15.2340000  45.1150000  55.6120000  16.9450000
  42.7790000  54.9670000  13.7090000  38.6540000  51.6230000  24.3230000
  40.8750000  52.6850000  24.0590000  42.6520000  53.5680000  23.6500000
  44.7760000  55.7770000  14.6840000  38.8520000  51.5260000  25.6590000
  37.8440000  51.2990000  23.9480000  41.0390000  52.5600000  25.4810000
  40.0600000  52.0090000  26.2430000  38.1840000  51.1350000  26.2080000
  41.8380000  52.8660000  25.8930000  40.1810000  51.9440000  27.1840000
  36.3470000   4.1930000   4.9780000  36.1910000   4.3120000   3.5870000
  35.3660000   3.6360000   5.8090000  37.5780000   4.6810000   5.5830000
  35.3890000   3.9950000   3.1860000  37.1670000   4.8780000   2.7770000
  34.5530000   3.3180000   5.4360000  35.5450000   3.5340000   7.1960000
  38.5700000   5.2520000   4.7500000  37.7570000   4.5790000   6.9700000
  38.3910000   5.3530000   3.3760000  37.0030000   5.0030000   1.3540000
  34.5540000   2.9620000   8.0280000  36.7760000   4.0220000   7.8010000
  39.3750000   5.5730000   5.1400000  38.5710000   4.8960000   7.3430000
  39.3870000   5.9390000   2.5130000  36.2030000   4.6960000   0.9420000
  37.9820000   5.5540000   0.5920000  34.7320000   2.8610000   9.4030000
  33.7480000   2.6410000   7.6390000  36.9330000   3.9020000   9.1920000
  39.1890000   6.0370000   1.1770000  40.1970000   6.2630000   2.8880000
  37.8610000   5.6190000  -0.3480000  33.7360000   2.2750000  10.2660000
  35.9570000   3.3370000  10.0020000  37.7340000   4.2200000   9.5930000
  39.8580000   6.4280000   0.6280000  33.9340000   2.1780000  11.6020000
  32.9260000   1.9510000   9.8910000  36.1210000   3.2120000  11.4250000
  35.1420000   2.6600000  12.1860000  33.2660000   1.7860000  12.1510000
  36.9200000   3.5180000  11.8360000  35.2630000   2.5960000  13.1270000
  37.0830000  11.8710000   4.9780000  36.9270000  11.9910000   3.5870000
  36.1020000  11.3140000   5.8090000  38.3140000  12.3590000   5.5830000
  36.1260000  11.6730000   3.1860000  37.9030000  12.5560000   2.7770000
  35.2890000  10.9970000   5.4360000  36.2820000  11.2120000   7.1960000
  39.3060000  12.9310000   4.7500000  38.4940000  12.2570000   6.9700000
  39.1270000  13.0320000   3.3760000  37.7390000  12.6810000   1.3540000
  35.2900000  10.6410000   8.0280000  37.5120000  11.7000000   7.8010000
  40.1110000  13.2520000   5.1400000  39.3070000  12.5750000   7.3430000
  40.1230000  13.6180000   2.5130000  36.9390000  12.3750000   0.9420000
  38.7180000  13.2320000   0.5920000  35.4680000  10.5390000   9.4030000
  34.4840000  10.3190000   7.6390000  37.6690000  11.5810000   9.1920000
  39.9250000  13.7150000   1.1770000  40.9330000  13.9420000   2.8880000
  38.5970000  13.2970000  -0.3480000  34.4720000   9.9540000  10.2660000
  36.6930000  11.0150000  10.0020000  38.4700000  11.8980000   9.5930000
  40.5940000  14.1070000   0.6280000  34.6700000   9.8560000  11.6020000
  33.6630000   9.6300000   9.8910000  36.8570000  10.8900000  11.4250000
  35.8780000  10.3390000  12.1860000  34.0020000   9.4650000  12.1510000
  37.6570000  11.1970000  11.8360000  35.9990000  10.2740000  13.1270000
  40.0910000  31.5320000  89.3190000  39.9350000  31.6520000  87.9270000
  39.1100000  30.9750000  90.1500000  41.3220000  32.0200000  89.9230000
  39.1330000  31.3340000  87.5270000  40.9100000  32.2170000  87.1180000
  38.2960000  30.6580000  89.7770000  39.2890000  30.8730000  91.5370000
  42.3140000  32.5920000  89.0910000  41.5010000  31.9180000  91.3110000
  42.1350000  32.6930000  87.7170000  40.7470000  32.3420000  85.6950000
  38.2970000  30.3020000  92.3690000  40.5200000  31.3610000  92.1420000
  43.1190000  32.9130000  89.4810000  42.3150000  32.2360000  91.6830000
  43.1310000  33.2790000  86.8530000  39.9470000  32.0360000  85.2830000
  41.7260000  32.8930000  84.9330000  38.4760000  30.2000000  93.7440000
  37.4920000  29.9800000  91.9800000  40.6760000  31.2420000  93.5330000
  42.9330000  33.3760000  85.5180000  43.9410000  33.6030000  87.2290000
  41.6040000  32.9580000  83.9930000  37.4800000  29.6150000  94.6070000
  39.7000000  30.6760000  94.3430000  41.4780000  31.5590000  93.9340000
  43.6010000  33.7680000  84.9680000  37.6780000  29.5170000  95.9430000
  36.6700000  29.2910000  94.2320000  39.8640000  30.5510000  95.7650000
  38.8850000  30.0000000  96.5270000  37.0090000  29.1260000  96.4920000
  40.6640000  30.8580000  96.1770000  39.0060000  29.9350000  97.4680000
  38.3210000  22.8270000  19.0350000  38.1640000  22.9460000  17.6430000
  37.3400000  22.2700000  19.8660000  39.5520000  23.3150000  19.6390000
  37.3630000  22.6290000  17.2430000  39.1400000  23.5120000  16.8340000
  36.5260000  21.9520000  19.4930000  37.5190000  22.1680000  21.2530000
  40.5430000  23.8860000  18.8070000  39.7310000  23.2130000  21.0270000
  40.3650000  23.9870000  17.4320000  38.9760000  23.6370000  15.4110000
  36.5270000  21.5960000  22.0850000  38.7500000  22.6560000  21.8580000
  41.3490000  24.2080000  19.1970000  40.5440000  23.5300000  21.3990000
  41.3610000  24.5730000  16.5690000  38.1770000  23.3300000  14.9990000
  39.9550000  24.1880000  14.6490000  36.7060000  21.4950000  23.4600000
  35.7220000  21.2750000  21.6960000  38.9060000  22.5360000  23.2490000
  41.1630000  24.6710000  15.2340000  42.1710000  24.8970000  16.9450000
  39.8340000  24.2530000  13.7090000  35.7100000  20.9090000  24.3230000
  37.9300000  21.9710000  24.0590000  39.7080000  22.8540000  23.6500000
  41.8310000  25.0620000  14.6840000  35.9080000  20.8120000  25.6590000
  34.9000000  20.5850000  23.9480000  38.0940000  21.8460000  25.4810000
  37.1150000  21.2940000  26.2430000  35.2390000  20.4200000  26.2080000
  38.8940000  22.1520000  25.8930000  37.2360000  21.2300000  27.1840000
  39.3230000  29.3810000  47.1490000  39.1670000  29.5000000  45.7570000
  38.3420000  28.8230000  47.9790000  40.5540000  29.8680000  47.7530000
  38.3650000  29.1820000  45.3560000  40.1430000  30.0650000  44.9470000
  37.5290000  28.5060000  47.6070000  38.5210000  28.7210000  49.3670000
  41.5460000  30.4400000  46.9210000  40.7330000  29.7670000  49.1400000
  41.3670000  30.5410000  45.5460000  39.9790000  30.1900000  43.5250000
  37.5300000  28.1500000  50.1990000  39.7520000  29.2090000  49.9710000
  42.3510000  30.7610000  47.3100000  41.5470000  30.0840000  49.5130000
  42.3630000  31.1270000  44.6830000  39.1790000  29.8840000  43.1130000
  40.9580000  30.7420000  42.7630000  37.7080000  28.0490000  51.5740000
  36.7240000  27.8290000  49.8100000  39.9090000  29.0900000  51.3630000
  42.1650000  31.2240000  43.3480000  43.1730000  31.4510000  45.0580000
  40.8370000  30.8060000  41.8220000  36.7120000  27.4630000  52.4370000
  38.9330000  28.5250000  52.1730000  40.7100000  29.4070000  51.7630000
  42.8340000  31.6160000  42.7980000  36.9100000  27.3660000  53.7720000
  35.9020000  27.1390000  52.0610000  39.0970000  28.3990000  53.5950000
  38.1180000  27.8480000  54.3570000  36.2420000  26.9740000  54.3220000
  39.8960000  28.7060000  54.0070000  38.2390000  27.7830000  55.2970000
  40.2540000  32.4860000  64.0280000  40.4100000  32.3670000  65.4200000
  41.2350000  33.0430000  63.1970000  39.0230000  31.9980000  63.4240000
  41.2110000  32.6840000  65.8200000  39.4340000  31.8010000  66.2290000
  42.0480000  33.3610000  63.5700000  41.0550000  33.1450000  61.8100000
  38.0310000  31.4270000  64.2560000  38.8430000  32.1000000  62.0360000
  38.2100000  31.3250000  65.6300000  39.5980000  31.6760000  67.6520000
  42.0470000  33.7170000  60.9780000  39.8250000  32.6570000  61.2050000
  37.2260000  31.1050000  63.8660000  38.0300000  31.7830000  61.6640000
  37.2140000  30.7400000  66.4940000  40.3980000  31.9820000  68.0640000
  38.6190000  31.1250000  68.4140000  41.8690000  33.8180000  59.6030000
  42.8530000  34.0380000  61.3670000  39.6680000  32.7770000  59.8140000
  37.4110000  30.6420000  67.8290000  36.4040000  30.4160000  66.1180000
  38.7400000  31.0600000  69.3540000  42.8650000  34.4040000  58.7400000
  40.6440000  33.3420000  59.0040000  38.8670000  32.4590000  59.4130000
  36.7430000  30.2510000  68.3790000  42.6670000  34.5010000  57.4040000
  43.6740000  34.7280000  59.1150000  40.4800000  33.4670000  57.5820000
  41.4590000  34.0180000  56.8200000  43.3350000  34.8930000  56.8550000
  39.6800000  33.1610000  57.1700000  41.3380000  34.0830000  55.8790000
  41.2560000  39.0400000  92.1420000  41.4130000  38.9200000  93.5330000
  42.2370000  39.5970000  91.3110000  40.0250000  38.5520000  91.5370000
  42.2140000  39.2380000  93.9340000  40.4370000  38.3550000  94.3430000
  43.0510000  39.9140000  91.6830000  42.0580000  39.6990000  89.9230000
  39.0330000  37.9800000  92.3690000  39.8460000  38.6540000  90.1500000
  39.2120000  37.8790000  93.7440000  40.6000000  38.2300000  95.7650000
  43.0500000  40.2710000  89.0910000  40.8270000  39.2110000  89.3190000
  38.2280000  37.6590000  91.9800000  39.0320000  38.3370000  89.7770000
  38.2160000  37.2930000  94.6070000  41.4000000  38.5360000  96.1770000
  39.6210000  37.6790000  96.5270000  42.8710000  40.3720000  87.7170000
  43.8550000  40.5920000  89.4810000  40.6710000  39.3300000  87.9270000
  38.4140000  37.1960000  95.9430000  37.4060000  36.9690000  94.2320000
  39.7430000  37.6140000  97.4680000  43.8670000  40.9570000  86.8530000
  41.6470000  39.8960000  87.1180000  39.8690000  39.0130000  87.5270000
  37.7460000  36.8040000  96.4920000  43.6690000  41.0550000  85.5180000
  44.6770000  41.2810000  87.2290000  41.4830000  40.0210000  85.6950000
  42.4620000  40.5720000  84.9330000  44.3380000  41.4460000  84.9680000
  40.6830000  39.7150000  85.2830000  42.3410000  40.6370000  83.9930000
  40.0590000  37.0590000  47.1490000  39.9030000  37.1790000  45.7570000
  39.0780000  36.5020000  47.9790000  41.2900000  37.5470000  47.7530000
  39.1020000  36.8610000  45.3560000  40.8790000  37.7440000  44.9470000
  38.2650000  36.1850000  47.6070000  39.2580000  36.4000000  49.3670000
  42.2820000  38.1190000  46.9210000  41.4700000  37.4450000  49.1400000
  42.1030000  38.2200000  45.5460000  40.7150000  37.8690000  43.5250000
  38.2660000  35.8280000  50.1990000  40.4880000  36.8880000  49.9710000
  43.0870000  38.4400000  47.3100000  42.2830000  37.7620000  49.5130000
  43.0990000  38.8060000  44.6830000  39.9150000  37.5630000  43.1130000
  41.6940000  38.4200000  42.7630000  38.4440000  35.7270000  51.5740000
  37.4600000  35.5070000  49.8100000  40.6450000  36.7680000  51.3630000
  42.9010000  38.9030000  43.3480000  43.9090000  39.1300000  45.0580000
  41.5730000  38.4850000  41.8220000  37.4480000  35.1410000  52.4370000
  39.6690000  36.2030000  52.1730000  41.4460000  37.0860000  51.7630000
  43.5700000  39.2950000  42.7980000  37.6460000  35.0440000  53.7720000
  36.6390000  34.8170000  52.0610000  39.8330000  36.0780000  53.5950000
  38.8540000  35.5270000  54.3570000  36.9780000  34.6520000  54.3220000
  40.6330000  36.3840000  54.0070000  38.9750000  35.4620000  55.2970000
  40.9900000  40.1650000  64.0280000  41.1460000  40.0450000  65.4200000
  41.9710000  40.7220000  63.1970000  39.7590000  39.6770000  63.4240000
  41.9470000  40.3630000  65.8200000  40.1700000  39.4800000  66.2290000
  42.7840000  41.0390000  63.5700000  41.7910000  40.8240000  61.8100000
  38.7670000  39.1050000  64.2560000  39.5790000  39.7790000  62.0360000
  38.9460000  39.0040000  65.6300000  40.3340000  39.3550000  67.6520000
  42.7830000  41.3950000  60.9780000  40.5610000  40.3360000  61.2050000
  37.9620000  38.7840000  63.8660000  38.7660000  39.4610000  61.6640000
  37.9500000  38.4180000  66.4940000  41.1340000  39.6610000  68.0640000
  39.3550000  38.8040000  68.4140000  42.6050000  41.4970000  59.6030000
  43.5890000  41.7170000  61.3670000  40.4040000  40.4550000  59.8140000
  38.1480000  38.3210000  67.8290000  37.1400000  38.0940000  66.1180000
  39.4760000  38.7390000  69.3540000  43.6010000  42.0820000  58.7400000
  41.3800000  41.0210000  59.0040000  39.6030000  40.1380000  59.4130000
  37.4790000  37.9290000  68.3790000  43.4030000  42.1800000  57.4040000
  44.4110000  42.4060000  59.1150000  41.2160000  41.1460000  57.5820000
  42.1950000  41.6970000  56.8200000  44.0710000  42.5710000  56.8550000
  40.4170000  40.8400000  57.1700000  42.0740000  41.7620000  55.8790000
  40.7960000  44.7380000  47.1490000  40.6390000  44.8570000  45.7570000
  39.8140000  44.1800000  47.9790000  42.0260000  45.2260000  47.7530000
  39.8380000  44.5400000  45.3560000  41.6150000  45.4220000  44.9470000
  39.0010000  43.8630000  47.6070000  39.9940000  44.0780000  49.3670000
  43.0180000  45.7970000  46.9210000  42.2060000  45.1240000  49.1400000
  42.8400000  45.8980000  45.5460000  41.4510000  45.5480000  43.5250000
  39.0020000  43.5070000  50.1990000  41.2250000  44.5660000  49.9710000
  43.8240000  46.1180000  47.3100000  43.0190000  45.4410000  49.5130000
  43.8360000  46.4840000  44.6830000  40.6510000  45.2410000  43.1130000
  42.4300000  46.0990000  42.7630000  39.1800000  43.4060000  51.5740000
  38.1970000  43.1860000  49.8100000  41.3810000  44.4470000  51.3630000
  43.6380000  46.5810000  43.3480000  44.6450000  46.8080000  45.0580000
  42.3090000  46.1640000  41.8220000  38.1840000  42.8200000  52.4370000
  40.4050000  43.8820000  52.1730000  42.1820000  44.7650000  51.7630000
  44.3060000  46.9730000  42.7980000  38.3820000  42.7230000  53.7720000
  37.3750000  42.4960000  52.0610000  40.5690000  43.7560000  53.5950000
  39.5900000  43.2050000  54.3570000  37.7140000  42.3310000  54.3220000
  41.3690000  44.0630000  54.0070000  39.7110000  43.1400000  55.2970000
  41.7260000  47.8430000  64.0280000  41.8820000  47.7240000  65.4200000
  42.7070000  48.4010000  63.1970000  40.4950000  47.3550000  63.4240000
  42.6840000  48.0410000  65.8200000  40.9060000  47.1590000  66.2290000
  43.5200000  48.7180000  63.5700000  42.5280000  48.5030000  61.8100000
  39.5030000  46.7840000  64.2560000  40.3160000  47.4570000  62.0360000
  39.6820000  46.6830000  65.6300000  41.0700000  47.0330000  67.6520000
  43.5190000  49.0740000  60.9780000  41.2970000  48.0150000  61.2050000
  38.6980000  46.4630000  63.8660000  39.5020000  47.1400000  61.6640000
  38.6860000  46.0970000  66.4940000  41.8700000  47.3400000  68.0640000
  40.0910000  46.4820000  68.4140000  43.3410000  49.1750000  59.6030000
  44.3250000  49.3950000  61.3670000  41.1400000  48.1340000  59.8140000
  38.8840000  46.0000000  67.8290000  37.8760000  45.7730000  66.1180000
  40.2120000  46.4170000  69.3540000  44.3370000  49.7610000  58.7400000
  42.1160000  48.6990000  59.0040000  40.3390000  47.8160000  59.4130000
  38.2150000  45.6080000  68.3790000  44.1390000  49.8580000  57.4040000
  45.1470000  50.0850000  59.1150000  41.9520000  48.8250000  57.5820000
  42.9310000  49.3760000  56.8200000  44.8070000  50.2500000  56.8550000
  41.1530000  48.5180000  57.1700000  42.8100000  49.4400000  55.8790000
  41.0300000  49.1390000  33.0920000  40.8740000  49.2590000  31.7000000
  40.0490000  48.5820000  33.9230000  42.2610000  49.6270000  33.6960000
  40.0730000  48.9410000  31.3000000  41.8500000  49.8240000  30.8900000
  39.2360000  48.2650000  33.5500000  40.2290000  48.4800000  35.3100000
  43.2530000  50.1990000  32.8640000  42.4410000  49.5250000  35.0840000
  43.0740000  50.3000000  31.4890000  41.6860000  49.9490000  29.4680000
  39.2370000  47.9090000  36.1420000  41.4590000  48.9680000  35.9140000
  44.0580000  50.5200000  33.2530000  43.2540000  49.8430000  35.4560000
  44.0700000  50.8860000  30.6260000  40.8860000  49.6430000  29.0560000
  42.6650000  50.5010000  28.7060000  39.4150000  47.8080000  37.5170000
  38.4310000  47.5870000  35.7530000  41.6160000  48.8490000  37.3060000
  43.8720000  50.9830000  29.2910000  44.8800000  51.2100000  31.0020000
  42.5440000  50.5650000  27.7660000  38.4190000  47.2220000  38.3800000
  40.6400000  48.2830000  38.1160000  42.4170000  49.1660000  37.7070000
  44.5410000  51.3750000  28.7410000  38.6170000  47.1240000  39.7150000
  37.6100000  46.8980000  38.0050000  40.8040000  48.1580000  39.5380000
  39.8250000  47.6070000  40.3000000  37.9490000  46.7330000  40.2650000
  41.6040000  48.4650000  39.9500000  39.9460000  47.5420000  41.2410000
  40.9580000  45.6910000  21.8580000  41.1150000  45.5720000  23.2490000
  41.9390000  46.2490000  21.0270000  39.7270000  45.2030000  21.2530000
  41.9160000  45.8900000  23.6500000  40.1390000  45.0070000  24.0590000
  42.7530000  46.5660000  21.3990000  41.7600000  46.3510000  19.6390000
  38.7350000  44.6320000  22.0850000  39.5480000  45.3050000  19.8660000
  38.9140000  44.5310000  23.4600000  40.3020000  44.8810000  25.4810000
  42.7520000  46.9220000  18.8070000  40.5290000  45.8630000  19.0350000
  37.9300000  44.3110000  21.6960000  38.7340000  44.9880000  19.4930000
  37.9180000  43.9450000  24.3230000  41.1020000  45.1880000  25.8930000
  39.3240000  44.3300000  26.2430000  42.5730000  47.0230000  17.4320000
  43.5570000  47.2430000  19.1970000  40.3730000  45.9820000  17.6430000
  38.1160000  43.8480000  25.6590000  37.1080000  43.6210000  23.9480000
  39.4450000  44.2650000  27.1840000  43.5690000  47.6090000  16.5690000
  41.3490000  46.5470000  16.8340000  39.5710000  45.6640000  17.2430000
  37.4480000  43.4560000  26.2080000  43.3710000  47.7060000  15.2340000
  44.3790000  47.9330000  16.9450000  41.1850000  46.6730000  15.4110000
  42.1640000  47.2240000  14.6490000  44.0400000  48.0980000  14.6840000
  40.3850000  46.3660000  14.9990000  42.0430000  47.2890000  13.7090000
  40.4570000  42.4150000   7.8010000  40.6130000  42.2950000   9.1920000
  41.4380000  42.9720000   6.9700000  39.2260000  41.9270000   7.1960000
  41.4150000  42.6130000   9.5930000  39.6370000  41.7300000  10.0020000
  42.2520000  43.2890000   7.3430000  41.2590000  43.0740000   5.5830000
  38.2340000  41.3550000   8.0280000  39.0470000  42.0280000   5.8090000
  38.4130000  41.2540000   9.4030000  39.8010000  41.6050000  11.4250000
  42.2510000  43.6450000   4.7500000  40.0280000  42.5860000   4.9780000
  37.4290000  41.0340000   7.6390000  38.2330000  41.7110000   5.4360000
  37.4170000  40.6680000  10.2660000  40.6010000  41.9110000  11.8360000
  38.8220000  41.0530000  12.1860000  42.0720000  43.7460000   3.3760000
  43.0560000  43.9660000   5.1400000  39.8710000  42.7050000   3.5870000
  37.6150000  40.5710000  11.6020000  36.6070000  40.3440000   9.8910000
  38.9430000  40.9890000  13.1270000  43.0680000  44.3320000   2.5130000
  40.8470000  43.2710000   2.7770000  39.0700000  42.3880000   3.1860000
  36.9460000  40.1790000  12.1510000  42.8700000  44.4290000   1.1770000
  43.8780000  44.6560000   2.8880000  40.6840000  43.3960000   1.3540000
  41.6620000  43.9470000   0.5920000  43.5380000  44.8210000   0.6280000
  39.8840000  43.0890000   0.9420000  41.5410000  44.0120000  -0.3480000
  42.5340000  58.9700000  75.2620000  42.3780000  59.0890000  73.8710000
  41.5530000  58.4130000  76.0930000  43.7650000  59.4580000  75.8670000
  41.5760000  58.7720000  73.4700000  43.3540000  59.6550000  73.0610000
  40.7390000  58.0950000  75.7200000  41.7320000  58.3110000  77.4800000
  44.7570000  60.0300000  75.0350000  43.9440000  59.3560000  77.2540000
  44.5780000  60.1310000  73.6600000  43.1900000  59.7800000  71.6380000
  40.7400000  57.7390000  78.3130000  42.9630000  58.7990000  78.0850000
  45.5620000  60.3510000  75.4240000  44.7580000  59.6730000  77.6270000
  45.5740000  60.7160000  72.7970000  42.3900000  59.4740000  71.2270000
  44.1690000  60.3310000  70.8770000  40.9190000  57.6380000  79.6870000
  39.9350000  57.4180000  77.9230000  43.1200000  58.6790000  79.4760000
  45.3760000  60.8140000  71.4610000  46.3840000  61.0400000  73.1720000
  44.0480000  60.3960000  69.9360000  39.9230000  57.0520000  80.5500000
  42.1440000  58.1140000  80.2860000  43.9210000  58.9970000  79.8770000
  46.0450000  61.2050000  70.9120000  40.1210000  56.9550000  81.8860000
  39.1130000  56.7280000  80.1750000  42.3080000  57.9890000  81.7090000
  41.3290000  57.4380000  82.4710000  39.4530000  56.5630000  82.4350000
  43.1070000  58.2950000  82.1210000  41.4500000  57.3730000  83.4110000
  43.0350000  62.2470000  89.3190000  42.8790000  62.3660000  87.9270000
  42.0540000  61.6890000  90.1500000  44.2660000  62.7350000  89.9230000
  42.0780000  62.0490000  87.5270000  43.8550000  62.9320000  87.1180000
  41.2410000  61.3720000  89.7770000  42.2340000  61.5880000  91.5370000
  45.2580000  63.3060000  89.0910000  44.4460000  62.6330000  91.3110000
  45.0790000  63.4070000  87.7170000  43.6910000  63.0570000  85.6950000
  41.2420000  61.0160000  92.3690000  43.4640000  62.0760000  92.1420000
  46.0630000  63.6270000  89.4810000  45.2590000  62.9500000  91.6830000
  46.0750000  63.9930000  86.8530000  42.8910000  62.7500000  85.2830000
  44.6700000  63.6080000  84.9330000  41.4200000  60.9150000  93.7440000
  40.4360000  60.6950000  91.9800000  43.6210000  61.9560000  93.5330000
  45.8780000  64.0900000  85.5180000  46.8850000  64.3170000  87.2290000
  44.5490000  63.6730000  83.9930000  40.4240000  60.3290000  94.6070000
  42.6450000  61.3910000  94.3430000  44.4220000  62.2740000  93.9340000
  46.5460000  64.4820000  84.9680000  40.6220000  60.2320000  95.9430000
  39.6150000  60.0050000  94.2320000  42.8090000  61.2660000  95.7650000
  41.8300000  60.7140000  96.5270000  39.9540000  59.8400000  96.4920000
  43.6090000  61.5720000  96.1770000  41.9510000  60.6500000  97.4680000
  40.7640000  50.2640000   4.9780000  40.6080000  50.3840000   3.5870000
  39.7830000  49.7070000   5.8090000  41.9950000  50.7520000   5.5830000
  39.8060000  50.0660000   3.1860000  41.5830000  50.9490000   2.7770000
  38.9690000  49.3900000   5.4360000  39.9620000  49.6050000   7.1960000
  42.9870000  51.3240000   4.7500000  42.1740000  50.6500000   6.9700000
  42.8080000  51.4250000   3.3760000  41.4200000  51.0740000   1.3540000
  38.9700000  49.0340000   8.0280000  41.1930000  50.0930000   7.8010000
  43.7920000  51.6450000   5.1400000  42.9880000  50.9680000   7.3430000
  43.8040000  52.0110000   2.5130000  40.6200000  50.7680000   0.9420000
  42.3990000  51.6250000   0.5920000  39.1490000  48.9320000   9.4030000
  38.1650000  48.7120000   7.6390000  41.3490000  49.9740000   9.1920000
  43.6060000  52.1080000   1.1770000  44.6140000  52.3350000   2.8880000
  42.2770000  51.6900000  -0.3480000  38.1530000  48.3470000  10.2660000
  40.3740000  49.4080000  10.0020000  42.1510000  50.2910000   9.5930000
  44.2740000  52.5000000   0.6280000  38.3510000  48.2490000  11.6020000
  37.3430000  48.0230000   9.8910000  40.5370000  49.2830000  11.4250000
  39.5580000  48.7320000  12.1860000  37.6820000  47.8580000  12.1510000
  41.3370000  49.5900000  11.8360000  39.6790000  48.6670000  13.1270000
  42.4300000  61.0490000  21.8580000  42.5870000  60.9290000  23.2490000
  43.4120000  61.6060000  21.0270000  41.2000000  60.5610000  21.2530000
  43.3880000  61.2470000  23.6500000  41.6110000  60.3640000  24.0590000
  44.2250000  61.9230000  21.3990000  43.2320000  61.7080000  19.6390000
  40.2080000  59.9890000  22.0850000  41.0200000  60.6630000  19.8660000
  40.3860000  59.8880000  23.4600000  41.7750000  60.2390000  25.4810000
  44.2240000  62.2790000  18.8070000  42.0010000  61.2200000  19.0350000
  39.4020000  59.6680000  21.6960000  40.2070000  60.3450000  19.4930000
  39.3900000  59.3020000  24.3230000  42.5750000  60.5450000  25.8930000
  40.7960000  59.6870000  26.2430000  44.0450000  62.3800000  17.4320000
  45.0290000  62.6000000  19.1970000  41.8450000  61.3390000  17.6430000
  39.5880000  59.2050000  25.6590000  38.5810000  58.9780000  23.9480000
  40.9170000  59.6230000  27.1840000  45.0410000  62.9660000  16.5690000
  42.8210000  61.9050000  16.8340000  41.0440000  61.0220000  17.2430000
  38.9200000  58.8130000  26.2080000  44.8430000  63.0640000  15.2340000
  45.8510000  63.2900000  16.9450000  42.6570000  62.0300000  15.4110000
  43.6360000  62.5810000  14.6490000  45.5120000  63.4550000  14.6840000
  41.8570000  61.7230000  14.9990000  43.5150000  62.6460000  13.7090000
  42.9320000  64.3250000  35.9140000  43.0880000  64.2060000  37.3060000
  43.9130000  64.8830000  35.0840000  41.7010000  63.8370000  35.3100000
  43.8890000  64.5240000  37.7070000  42.1120000  63.6410000  38.1160000
  44.7260000  65.2000000  35.4560000  43.7330000  64.9850000  33.6960000
  40.7090000  63.2660000  36.1420000  41.5210000  63.9390000  33.9230000
  40.8880000  63.1650000  37.5170000  42.2760000  63.5150000  39.5380000
  44.7250000  65.5560000  32.8640000  42.5030000  64.4970000  33.0920000
  39.9040000  62.9450000  35.7530000  40.7080000  63.6220000  33.5500000
  39.8920000  62.5790000  38.3800000  43.0760000  63.8220000  39.9500000
  41.2970000  62.9640000  40.3000000  44.5470000  65.6570000  31.4890000
  45.5310000  65.8770000  33.2530000  42.3460000  64.6160000  31.7000000
  40.0900000  62.4820000  39.7150000  39.0820000  62.2550000  38.0050000
  41.4180000  62.8990000  41.2410000  45.5430000  66.2430000  30.6260000
  43.3220000  65.1810000  30.8900000  41.5450000  64.2980000  31.3000000
  39.4210000  62.0900000  40.2650000  45.3450000  66.3400000  29.2910000
  46.3520000  66.5670000  31.0020000  43.1580000  65.3070000  29.4680000
  44.1370000  65.8580000  28.7060000  46.0130000  66.7320000  28.7410000
  42.3580000  65.0000000  29.0560000  44.0160000  65.9230000  27.7660000
  43.0040000  67.7730000  47.1490000  42.8470000  67.8930000  45.7570000
  42.0230000  67.2160000  47.9790000  44.2350000  68.2610000  47.7530000
  42.0460000  67.5750000  45.3560000  43.8230000  68.4580000  44.9470000
  41.2090000  66.8990000  47.6070000  42.2020000  67.1140000  49.3670000
  45.2270000  68.8330000  46.9210000  44.4140000  68.1600000  49.1400000
  45.0480000  68.9340000  45.5460000  43.6600000  68.5830000  43.5250000
  41.2100000  66.5430000  50.1990000  43.4330000  67.6020000  49.9710000
  46.0320000  69.1540000  47.3100000  45.2280000  68.4770000  49.5130000
  46.0440000  69.5200000  44.6830000  42.8600000  68.2770000  43.1130000
  44.6390000  69.1350000  42.7630000  41.3890000  66.4420000  51.5740000
  40.4050000  66.2220000  49.8100000  43.5890000  67.4830000  51.3630000
  45.8460000  69.6170000  43.3480000  46.8540000  69.8440000  45.0580000
  44.5170000  69.1990000  41.8220000  40.3930000  65.8560000  52.4370000
  42.6130000  66.9170000  52.1730000  44.3910000  67.8000000  51.7630000
  46.5140000  70.0090000  42.7980000  40.5910000  65.7590000  53.7720000
  39.5830000  65.5320000  52.0610000  42.7770000  66.7920000  53.5950000
  41.7980000  66.2410000  54.3570000  39.9220000  65.3670000  54.3220000
  43.5770000  67.0990000  54.0070000  41.9190000  66.1760000  55.2970000
  41.5000000  57.9430000   4.9780000  41.3440000  58.0620000   3.5870000
  40.5190000  57.3860000   5.8090000  42.7310000  58.4310000   5.5830000
  40.5420000  57.7450000   3.1860000  42.3200000  58.6280000   2.7770000
  39.7050000  57.0680000   5.4360000  40.6980000  57.2840000   7.1960000
  43.7230000  59.0030000   4.7500000  42.9100000  58.3290000   6.9700000
  43.5440000  59.1040000   3.3760000  42.1560000  58.7530000   1.3540000
  39.7060000  56.7120000   8.0280000  41.9290000  57.7720000   7.8010000
  44.5280000  59.3240000   5.1400000  43.7240000  58.6460000   7.3430000
  44.5400000  59.6890000   2.5130000  41.3560000  58.4470000   0.9420000
  43.1350000  59.3040000   0.5920000  39.8850000  56.6110000   9.4030000
  38.9010000  56.3910000   7.6390000  42.0860000  57.6520000   9.1920000
  44.3420000  59.7870000   1.1770000  45.3500000  60.0130000   2.8880000
  43.0140000  59.3690000  -0.3480000  38.8890000  56.0250000  10.2660000
  41.1100000  57.0870000  10.0020000  42.8870000  57.9700000   9.5930000
  45.0110000  60.1780000   0.6280000  39.0870000  55.9280000  11.6020000
  38.0790000  55.7010000   9.8910000  41.2730000  56.9620000  11.4250000
  40.2940000  56.4110000  12.1860000  38.4190000  55.5360000  12.1510000
  42.0730000  57.2680000  11.8360000  40.4160000  56.3460000  13.1270000
  42.7370000  68.8980000  19.0350000  42.5810000  69.0180000  17.6430000
  41.7560000  68.3410000  19.8660000  43.9680000  69.3860000  19.6390000
  41.7800000  68.7000000  17.2430000  43.5570000  69.5830000  16.8340000
  40.9430000  68.0240000  19.4930000  41.9360000  68.2390000  21.2530000
  44.9600000  69.9580000  18.8070000  44.1480000  69.2840000  21.0270000
  44.7820000  70.0590000  17.4320000  43.3930000  69.7080000  15.4110000
  40.9440000  67.6680000  22.0850000  43.1670000  68.7270000  21.8580000
  45.7660000  70.2790000  19.1970000  44.9610000  69.6020000  21.3990000
  45.7780000  70.6450000  16.5690000  42.5930000  69.4020000  14.9990000
  44.3720000  70.2590000  14.6490000  41.1220000  67.5670000  23.4600000
  40.1380000  67.3460000  21.6960000  43.3230000  68.6080000  23.2490000
  45.5800000  70.7420000  15.2340000  46.5870000  70.9690000  16.9450000
  44.2510000  70.3240000  13.7090000  40.1260000  66.9810000  24.3230000
  42.3470000  68.0420000  24.0590000  44.1240000  68.9250000  23.6500000
  46.2480000  71.1340000  14.6840000  40.3240000  66.8830000  25.6590000
  39.3170000  66.6570000  23.9480000  42.5110000  67.9170000  25.4810000
  41.5320000  67.3660000  26.2430000  39.6560000  66.4920000  26.2080000
  43.3110000  68.2240000  25.8930000  41.6530000  67.3010000  27.1840000
  43.9030000  76.4060000  21.8580000  44.0590000  76.2860000  23.2490000
  44.8840000  76.9630000  21.0270000  42.6720000  75.9180000  21.2530000
  44.8600000  76.6040000  23.6500000  43.0830000  75.7210000  24.0590000
  45.6970000  77.2800000  21.3990000  44.7040000  77.0650000  19.6390000
  41.6800000  75.3460000  22.0850000  42.4920000  76.0200000  19.8660000
  41.8590000  75.2450000  23.4600000  43.2470000  75.5960000  25.4810000
  45.6960000  77.6370000  18.8070000  43.4740000  76.5770000  19.0350000
  40.8750000  75.0250000  21.6960000  41.6790000  75.7030000  19.4930000
  40.8630000  74.6590000  24.3230000  44.0470000  75.9020000  25.8930000
  42.2680000  75.0450000  26.2430000  45.5180000  77.7380000  17.4320000
  46.5020000  77.9580000  19.1970000  43.3170000  76.6960000  17.6430000
  41.0610000  74.5620000  25.6590000  40.0530000  74.3350000  23.9480000
  42.3890000  74.9800000  27.1840000  46.5140000  78.3240000  16.5690000
  44.2930000  77.2620000  16.8340000  42.5160000  76.3790000  17.2430000
  40.3920000  74.1700000  26.2080000  46.3160000  78.4210000  15.2340000
  47.3230000  78.6470000  16.9450000  44.1290000  77.3870000  15.4110000
  45.1080000  77.9380000  14.6490000  46.9840000  78.8120000  14.6840000
  43.3290000  77.0810000  14.9990000  44.9870000  78.0030000  13.7090000
  43.9750000  79.8540000  33.0920000  43.8180000  79.9730000  31.7000000
  42.9940000  79.2970000  33.9230000  45.2060000  80.3420000  33.6960000
  43.0170000  79.6560000  31.3000000  44.7940000  80.5390000  30.8900000
  42.1800000  78.9790000  33.5500000  43.1730000  79.1950000  35.3100000
  46.1980000  80.9130000  32.8640000  45.3850000  80.2400000  35.0840000
  46.0190000  81.0140000  31.4890000  44.6310000  80.6640000  29.4680000
  42.1810000  78.6230000  36.1420000  44.4040000  79.6830000  35.9140000
  47.0030000  81.2350000  33.2530000  46.1990000  80.5570000  35.4560000
  47.0150000  81.6000000  30.6260000  43.8310000  80.3570000  29.0560000
  45.6090000  81.2150000  28.7060000  42.3600000  78.5220000  37.5170000
  41.3760000  78.3020000  35.7530000  44.5600000  79.5630000  37.3060000
  46.8170000  81.6980000  29.2910000  47.8250000  81.9240000  31.0020000
  45.4880000  81.2800000  27.7660000  41.3640000  77.9360000  38.3800000
  43.5840000  78.9980000  38.1160000  45.3620000  79.8810000  37.7070000
  47.4850000  82.0890000  28.7410000  41.5620000  77.8390000  39.7150000
  40.5540000  77.6120000  38.0050000  43.7480000  78.8730000  39.5380000
  42.7690000  78.3210000  40.3000000  40.8930000  77.4470000  40.2650000
  44.5480000  79.1790000  39.9500000  42.8900000  78.2570000  41.2410000
  36.8490000   7.4700000  19.0350000  36.6920000   7.5890000  17.6430000
  35.8670000   6.9120000  19.8660000  38.0790000   7.9580000  19.6390000
  35.8910000   7.2710000  17.2430000  37.6680000   8.1540000  16.8340000
  35.0540000   6.5950000  19.4930000  36.0470000   6.8100000  21.2530000
  39.0710000   8.5290000  18.8070000  38.2590000   7.8560000  21.0270000
  38.8930000   8.6300000  17.4320000  37.5040000   8.2800000  15.4110000
  35.0550000   6.2390000  22.0850000  37.2780000   7.2980000  21.8580000
  39.8770000   8.8500000  19.1970000  39.0720000   8.1730000  21.3990000
  39.8890000   9.2160000  16.5690000  36.7040000   7.9730000  14.9990000
  38.4830000   8.8310000  14.6490000  35.2330000   6.1380000  23.4600000
  34.2500000   5.9180000  21.6960000  37.4340000   7.1790000  23.2490000
  39.6910000   9.3130000  15.2340000  40.6980000   9.5400000  16.9450000
  38.3620000   8.8960000  13.7090000  34.2370000   5.5520000  24.3230000
  36.4580000   6.6140000  24.0590000  38.2350000   7.4970000  23.6500000
  40.3590000   9.7050000  14.6840000  34.4350000   5.4550000  25.6590000
  33.4280000   5.2280000  23.9480000  36.6220000   6.4880000  25.4810000
  35.6430000   5.9370000  26.2430000  33.7670000   5.0630000  26.2080000
  37.4220000   6.7950000  25.8930000  35.7640000   5.8720000  27.1840000
  37.7790000  10.5750000  35.9140000  37.9350000  10.4560000  37.3060000
  38.7600000  11.1320000  35.0840000  36.5480000  10.0870000  35.3100000
  38.7370000  10.7730000  37.7070000  36.9590000   9.8900000  38.1160000
  39.5730000  11.4500000  35.4560000  38.5810000  11.2340000  33.6960000
  35.5560000   9.5160000  36.1420000  36.3690000  10.1890000  33.9230000
  35.7350000   9.4150000  37.5170000  37.1230000   9.7650000  39.5380000
  39.5730000  11.8060000  32.8640000  37.3500000  10.7460000  33.0920000
  34.7510000   9.1950000  35.7530000  35.5550000   9.8720000  33.5500000
  34.7390000   8.8290000  38.3800000  37.9230000  10.0720000  39.9500000
  36.1440000   9.2140000  40.3000000  39.3940000  11.9070000  31.4890000
  40.3780000  12.1270000  33.2530000  37.1930000  10.8660000  31.7000000
  34.9370000   8.7320000  39.7150000  33.9290000   8.5050000  38.0050000
  36.2650000   9.1490000  41.2410000  40.3900000  12.4930000  30.6260000
  38.1690000  11.4310000  30.8900000  36.3920000  10.5480000  31.3000000
  34.2680000   8.3400000  40.2650000  40.1920000  12.5900000  29.2910000
  41.2000000  12.8170000  31.0020000  38.0050000  11.5560000  29.4680000
  38.9840000  12.1080000  28.7060000  40.8600000  12.9820000  28.7410000
  37.2060000  11.2500000  29.0560000  38.8630000  12.1720000  27.7660000
  39.7840000  23.6830000  92.1420000  39.9400000  23.5630000  93.5330000
  40.7650000  24.2400000  91.3110000  38.5530000  23.1950000  91.5370000
  40.7420000  23.8810000  93.9340000  38.9640000  22.9980000  94.3430000
  41.5790000  24.5570000  91.6830000  40.5860000  24.3420000  89.9230000
  37.5610000  22.6230000  92.3690000  38.3740000  23.2970000  90.1500000
  37.7400000  22.5220000  93.7440000  39.1280000  22.8730000  95.7650000
  41.5780000  24.9130000  89.0910000  39.3550000  23.8540000  89.3190000
  36.7560000  22.3020000  91.9800000  37.5600000  22.9790000  89.7770000
  36.7440000  21.9360000  94.6070000  39.9280000  23.1790000  96.1770000
  38.1490000  22.3210000  96.5270000  41.3990000  25.0140000  87.7170000
  42.3830000  25.2340000  89.4810000  39.1980000  23.9730000  87.9270000
  36.9420000  21.8390000  95.9430000  35.9340000  21.6120000  94.2320000
  38.2700000  22.2570000  97.4680000  42.3950000  25.6000000  86.8530000
  40.1740000  24.5390000  87.1180000  38.3970000  23.6560000  87.5270000
  36.2730000  21.4470000  96.4920000  42.1970000  25.6980000  85.5180000
  43.2050000  25.9240000  87.2290000  40.0100000  24.6640000  85.6950000
  40.9890000  25.2150000  84.9330000  42.8650000  26.0890000  84.9680000
  39.2110000  24.3570000  85.2830000  40.8680000  25.2800000  83.9930000
  38.7810000  17.1290000  64.0280000  38.9380000  17.0090000  65.4200000
  39.7620000  17.6860000  63.1970000  37.5510000  16.6410000  63.4240000
  39.7390000  17.3270000  65.8200000  37.9620000  16.4440000  66.2290000
  40.5760000  18.0030000  63.5700000  39.5830000  17.7880000  61.8100000
  36.5590000  16.0690000  64.2560000  37.3710000  16.7430000  62.0360000
  36.7370000  15.9680000  65.6300000  38.1260000  16.3190000  67.6520000
  40.5750000  18.3600000  60.9780000  38.3520000  17.3000000  61.2050000
  35.7530000  15.7480000  63.8660000  36.5580000  16.4260000  61.6640000
  35.7410000  15.3820000  66.4940000  38.9250000  16.6250000  68.0640000
  37.1470000  15.7680000  68.4140000  40.3960000  18.4610000  59.6030000
  41.3800000  18.6810000  61.3670000  38.1960000  17.4200000  59.8140000
  35.9390000  15.2850000  67.8290000  34.9310000  15.0580000  66.1180000
  37.2680000  15.7030000  69.3540000  41.3920000  19.0470000  58.7400000
  39.1720000  17.9850000  59.0040000  37.3940000  17.1020000  59.4130000
  35.2710000  14.8930000  68.3790000  41.1940000  19.1440000  57.4040000
  42.2020000  19.3710000  59.1150000  39.0080000  18.1100000  57.5820000
  39.9870000  18.6610000  56.8200000  41.8630000  19.5360000  56.8550000
  38.2080000  17.8040000  57.1700000  39.8660000  18.7260000  55.8790000
  39.2830000  20.4060000  78.0850000  39.4390000  20.2860000  79.4760000
  40.2640000  20.9630000  77.2540000  38.0520000  19.9180000  77.4800000
  40.2400000  20.6040000  79.8770000  38.4630000  19.7210000  80.2860000
  41.0770000  21.2800000  77.6270000  40.0840000  21.0650000  75.8670000
  37.0600000  19.3460000  78.3130000  37.8720000  20.0200000  76.0930000
  37.2390000  19.2450000  79.6870000  38.6270000  19.5960000  81.7090000
  41.0760000  21.6370000  75.0350000  38.8540000  20.5770000  75.2620000
  36.2550000  19.0250000  77.9230000  37.0590000  19.7020000  75.7200000
  36.2430000  18.6590000  80.5500000  39.4270000  19.9020000  82.1210000
  37.6480000  19.0450000  82.4710000  40.8980000  21.7380000  73.6600000
  41.8820000  21.9580000  75.4240000  38.6970000  20.6960000  73.8710000
  36.4410000  18.5620000  81.8860000  35.4330000  18.3350000  80.1750000
  37.7690000  18.9800000  83.4110000  41.8940000  22.3230000  72.7970000
  39.6730000  21.2620000  73.0610000  37.8960000  20.3790000  73.4700000
  35.7720000  18.1700000  82.4350000  41.6960000  22.4210000  71.4610000
  42.7030000  22.6470000  73.1720000  39.5090000  21.3870000  71.6380000
  40.4880000  21.9380000  70.8770000  42.3640000  22.8120000  70.9120000
  38.7090000  21.0810000  71.2270000  40.3670000  22.0030000  69.9360000
  37.8510000  14.0230000  47.1490000  37.6950000  14.1430000  45.7570000
  36.8700000  13.4660000  47.9790000  39.0820000  14.5110000  47.7530000
  36.8930000  13.8250000  45.3560000  38.6710000  14.7080000  44.9470000
  36.0560000  13.1490000  47.6070000  37.0490000  13.3640000  49.3670000
  40.0740000  15.0830000  46.9210000  39.2610000  14.4090000  49.1400000
  39.8950000  15.1840000  45.5460000  38.5070000  14.8330000  43.5250000
  36.0570000  12.7920000  50.1990000  38.2800000  13.8520000  49.9710000
  40.8790000  15.4040000  47.3100000  40.0750000  14.7270000  49.5130000
  40.8910000  15.7700000  44.6830000  37.7070000  14.5270000  43.1130000
  39.4860000  15.3840000  42.7630000  36.2360000  12.6910000  51.5740000
  35.2520000  12.4710000  49.8100000  38.4370000  13.7330000  51.3630000
  40.6930000  15.8670000  43.3480000  41.7010000  16.0940000  45.0580000
  39.3650000  15.4490000  41.8220000  35.2400000  12.1060000  52.4370000
  37.4610000  13.1670000  52.1730000  39.2380000  14.0500000  51.7630000
  41.3620000  16.2590000  42.7980000  35.4380000  12.0080000  53.7720000
  34.4300000  11.7820000  52.0610000  37.6240000  13.0420000  53.5950000
  36.6450000  12.4910000  54.3570000  34.7700000  11.6170000  54.3220000
  38.4240000  13.3480000  54.0070000  36.7670000  12.4260000  55.2970000
  37.5850000  15.1480000  19.0350000  37.4280000  15.2680000  17.6430000
  36.6030000  14.5910000  19.8660000  38.8150000  15.6360000  19.6390000
  36.6270000  14.9500000  17.2430000  38.4040000  15.8330000  16.8340000
  35.7900000  14.2740000  19.4930000  36.7830000  14.4890000  21.2530000
  39.8070000  16.2080000  18.8070000  38.9950000  15.5340000  21.0270000
  39.6290000  16.3090000  17.4320000  38.2400000  15.9580000  15.4110000
  35.7910000  13.9170000  22.0850000  38.0140000  14.9770000  21.8580000
  40.6130000  16.5290000  19.1970000  39.8080000  15.8510000  21.3990000
  40.6250000  16.8950000  16.5690000  37.4400000  15.6520000  14.9990000
  39.2190000  16.5090000  14.6490000  35.9700000  13.8160000  23.4600000
  34.9860000  13.5960000  21.6960000  38.1700000  14.8580000  23.2490000
  40.4270000  16.9920000  15.2340000  41.4340000  17.2190000  16.9450000
  39.0980000  16.5740000  13.7090000  34.9740000  13.2300000  24.3230000
  37.1940000  14.2920000  24.0590000  38.9710000  15.1750000  23.6500000
  41.0950000  17.3840000  14.6840000  35.1720000  13.1330000  25.6590000
  34.1640000  12.9060000  23.9480000  37.3580000  14.1670000  25.4810000
  36.3790000  13.6160000  26.2430000  34.5030000  12.7420000  26.2080000
  38.1580000  14.4730000  25.8930000  36.5000000  13.5510000  27.1840000
  38.0860000  18.4250000  33.0920000  37.9290000  18.5450000  31.7000000
  37.1050000  17.8680000  33.9230000  39.3170000  18.9130000  33.6960000
  37.1280000  18.2270000  31.3000000  38.9050000  19.1100000  30.8900000
  36.2910000  17.5510000  33.5500000  37.2840000  17.7660000  35.3100000
  40.3090000  19.4850000  32.8640000  39.4960000  18.8110000  35.0840000
  40.1300000  19.5860000  31.4890000  38.7420000  19.2350000  29.4680000
  36.2920000  17.1940000  36.1420000  38.5150000  18.2540000  35.9140000
  41.1140000  19.8060000  33.2530000  40.3100000  19.1280000  35.4560000
  41.1260000  20.1720000  30.6260000  37.9420000  18.9290000  29.0560000
  39.7210000  19.7860000  28.7060000  36.4710000  17.0930000  37.5170000
  35.4870000  16.8730000  35.7530000  38.6710000  18.1340000  37.3060000
  40.9280000  20.2690000  29.2910000  41.9360000  20.4960000  31.0020000
  39.5990000  19.8510000  27.7660000  35.4750000  16.5070000  38.3800000
  37.6950000  17.5690000  38.1160000  39.4730000  18.4520000  37.7070000
  41.5960000  20.6600000  28.7410000  35.6730000  16.4100000  39.7150000
  34.6650000  16.1830000  38.0050000  37.8590000  17.4440000  39.5380000
  36.8800000  16.8930000  40.3000000  35.0040000  16.0180000  40.2650000
  38.6590000  17.7500000  39.9500000  37.0010000  16.8280000  41.2410000
  38.5870000  21.7020000  47.1490000  38.4310000  21.8210000  45.7570000
  37.6060000  21.1450000  47.9790000  39.8180000  22.1900000  47.7530000
  37.6290000  21.5040000  45.3560000  39.4070000  22.3870000  44.9470000
  36.7920000  20.8270000  47.6070000  37.7850000  21.0430000  49.3670000
  40.8100000  22.7610000  46.9210000  39.9970000  22.0880000  49.1400000
  40.6310000  22.8630000  45.5460000  39.2430000  22.5120000  43.5250000
  36.7930000  20.4710000  50.1990000  39.0160000  21.5310000  49.9710000
  41.6150000  23.0830000  47.3100000  40.8110000  22.4050000  49.5130000
  41.6270000  23.4480000  44.6830000  38.4430000  22.2050000  43.1130000
  40.2220000  23.0630000  42.7630000  36.9720000  20.3700000  51.5740000
  35.9880000  20.1500000  49.8100000  39.1730000  21.4110000  51.3630000
  41.4290000  23.5460000  43.3480000  42.4370000  23.7720000  45.0580000
  40.1010000  23.1280000  41.8220000  35.9760000  19.7840000  52.4370000
  38.1970000  20.8460000  52.1730000  39.9740000  21.7290000  51.7630000
  42.0980000  23.9370000  42.7980000  36.1740000  19.6870000  53.7720000
  35.1660000  19.4600000  52.0610000  38.3610000  20.7210000  53.5950000
  37.3820000  20.1700000  54.3570000  35.5060000  19.2950000  54.3220000
  39.1600000  21.0270000  54.0070000  37.5030000  20.1050000  55.2970000
  39.5170000  24.8070000  64.0280000  39.6740000  24.6880000  65.4200000
  40.4990000  25.3650000  63.1970000  38.2870000  24.3190000  63.4240000
  40.4750000  25.0060000  65.8200000  38.6980000  24.1230000  66.2290000
  41.3120000  25.6820000  63.5700000  40.3190000  25.4670000  61.8100000
  37.2950000  23.7480000  64.2560000  38.1070000  24.4210000  62.0360000
  37.4730000  23.6470000  65.6300000  38.8620000  23.9970000  67.6520000
  41.3110000  26.0380000  60.9780000  39.0880000  24.9790000  61.2050000
  36.4890000  23.4270000  63.8660000  37.2940000  24.1040000  61.6640000
  36.4770000  23.0610000  66.4940000  39.6620000  24.3040000  68.0640000
  37.8830000  23.4460000  68.4140000  41.1320000  26.1390000  59.6030000
  42.1160000  26.3590000  61.3670000  38.9320000  25.0980000  59.8140000
  36.6750000  22.9640000  67.8290000  35.6680000  22.7370000  66.1180000
  38.0040000  23.3810000  69.3540000  42.1280000  26.7250000  58.7400000
  39.9080000  25.6630000  59.0040000  38.1310000  24.7810000  59.4130000
  36.0070000  22.5720000  68.3790000  41.9310000  26.8220000  57.4040000
  42.9380000  27.0490000  59.1150000  39.7440000  25.7890000  57.5820000
  40.7230000  26.3400000  56.8200000  42.5990000  27.2140000  56.8550000
  38.9440000  25.4820000  57.1700000  40.6020000  26.4050000  55.8790000
  40.0190000  28.0840000  78.0850000  40.1750000  27.9650000  79.4760000
  41.0000000  28.6420000  77.2540000  38.7880000  27.5960000  77.4800000
  40.9770000  28.2820000  79.8770000  39.1990000  27.4000000  80.2860000
  41.8130000  28.9590000  77.6270000  40.8200000  28.7440000  75.8670000
  37.7960000  27.0250000  78.3130000  38.6090000  27.6980000  76.0930000
  37.9750000  26.9240000  79.6870000  39.3630000  27.2740000  81.7090000
  41.8120000  29.3150000  75.0350000  39.5900000  28.2560000  75.2620000
  36.9910000  26.7040000  77.9230000  37.7950000  27.3810000  75.7200000
  36.9790000  26.3380000  80.5500000  40.1630000  27.5810000  82.1210000
  38.3840000  26.7230000  82.4710000  41.6340000  29.4160000  73.6600000
  42.6180000  29.6360000  75.4240000  39.4330000  28.3750000  73.8710000
  37.1770000  26.2410000  81.8860000  36.1690000  26.0140000  80.1750000
  38.5050000  26.6580000  83.4110000  42.6300000  30.0020000  72.7970000
  40.4090000  28.9400000  73.0610000  38.6320000  28.0570000  73.4700000
  36.5080000  25.8490000  82.4350000  42.4320000  30.0990000  71.4610000
  43.4400000  30.3260000  73.1720000  40.2450000  29.0660000  71.6380000
  41.2240000  29.6170000  70.8770000  43.1000000  30.4910000  70.9120000
  39.4460000  28.7590000  71.2270000  41.1030000  29.6820000  69.9360000
  39.2510000  25.9320000  35.9140000  39.4070000  25.8130000  37.3060000
  40.2320000  26.4900000  35.0840000  38.0200000  25.4440000  35.3100000
  40.2090000  26.1310000  37.7070000  38.4320000  25.2480000  38.1160000
  41.0460000  26.8070000  35.4560000  40.0530000  26.5920000  33.6960000
  37.0280000  24.8730000  36.1420000  37.8410000  25.5460000  33.9230000
  37.2070000  24.7720000  37.5170000  38.5950000  25.1220000  39.5380000
  41.0450000  27.1630000  32.8640000  38.8220000  26.1040000  33.0920000
  36.2230000  24.5520000  35.7530000  37.0270000  25.2290000  33.5500000
  36.2110000  24.1860000  38.3800000  39.3950000  25.4290000  39.9500000
  37.6160000  24.5710000  40.3000000  40.8660000  27.2640000  31.4890000
  41.8500000  27.4840000  33.2530000  38.6660000  26.2230000  31.7000000
  36.4090000  24.0890000  39.7150000  35.4010000  23.8620000  38.0050000
  37.7380000  24.5060000  41.2410000  41.8620000  27.8500000  30.6260000
  39.6420000  26.7880000  30.8900000  37.8640000  25.9050000  31.3000000
  35.7410000  23.6970000  40.2650000  41.6640000  27.9470000  29.2910000
  42.6720000  28.1740000  31.0020000  39.4780000  26.9140000  29.4680000
  40.4570000  27.4650000  28.7060000  42.3330000  28.3390000  28.7410000
  38.6780000  26.6070000  29.0560000  40.3360000  27.5300000  27.7660000
  37.8190000  19.5500000   4.9780000  37.6630000  19.6690000   3.5870000
  36.8380000  18.9930000   5.8090000  39.0500000  20.0380000   5.5830000
  36.8620000  19.3520000   3.1860000  38.6390000  20.2350000   2.7770000
  36.0250000  18.6760000   5.4360000  37.0180000  18.8910000   7.1960000
  40.0420000  20.6100000   4.7500000  39.2300000  19.9360000   6.9700000
  39.8640000  20.7110000   3.3760000  38.4750000  20.3600000   1.3540000
  36.0260000  18.3190000   8.0280000  38.2490000  19.3790000   7.8010000
  40.8480000  20.9310000   5.1400000  40.0430000  20.2530000   7.3430000
  40.8600000  21.2960000   2.5130000  37.6750000  20.0540000   0.9420000
  39.4540000  20.9110000   0.5920000  36.2040000  18.2180000   9.4030000
  35.2200000  17.9980000   7.6390000  38.4050000  19.2590000   9.1920000
  40.6620000  21.3940000   1.1770000  41.6690000  21.6200000   2.8880000
  39.3330000  20.9760000  -0.3480000  35.2080000  17.6320000  10.2660000
  37.4290000  18.6940000  10.0020000  39.2060000  19.5770000   9.5930000
  41.3300000  21.7850000   0.6280000  35.4060000  17.5350000  11.6020000
  34.3990000  17.3080000   9.8910000  37.5930000  18.5690000  11.4250000
  36.6140000  18.0180000  12.1860000  34.7380000  17.1430000  12.1510000
  38.3930000  18.8750000  11.8360000  36.7350000  17.9530000  13.1270000
  40.7550000  35.7630000  78.0850000  40.9110000  35.6430000  79.4760000
  41.7360000  36.3200000  77.2540000  39.5240000  35.2750000  77.4800000
  41.7130000  35.9610000  79.8770000  39.9350000  35.0780000  80.2860000
  42.5490000  36.6370000  77.6270000  41.5570000  36.4220000  75.8670000
  38.5320000  34.7030000  78.3130000  39.3450000  35.3770000  76.0930000
  38.7110000  34.6020000  79.6870000  40.0990000  34.9530000  81.7090000
  42.5490000  36.9940000  75.0350000  40.3260000  35.9340000  75.2620000
  37.7270000  34.3820000  77.9230000  38.5310000  35.0600000  75.7200000
  37.7150000  34.0160000  80.5500000  40.8990000  35.2590000  82.1210000
  39.1200000  34.4020000  82.4710000  42.3700000  37.0950000  73.6600000
  43.3540000  37.3150000  75.4240000  40.1690000  36.0540000  73.8710000
  37.9130000  33.9190000  81.8860000  36.9050000  33.6920000  80.1750000
  39.2410000  34.3370000  83.4110000  43.3660000  37.6810000  72.7970000
  41.1450000  36.6190000  73.0610000  39.3680000  35.7360000  73.4700000
  37.2440000  33.5270000  82.4350000  43.1680000  37.7780000  71.4610000
  44.1760000  38.0050000  73.1720000  40.9810000  36.7440000  71.6380000
  41.9600000  37.2950000  70.8770000  43.8360000  38.1700000  70.9120000
  40.1820000  36.4380000  71.2270000  41.8390000  37.3600000  69.9360000
  39.9870000  33.6110000  35.9140000  40.1440000  33.4920000  37.3060000
  40.9680000  34.1680000  35.0840000  38.7560000  33.1230000  35.3100000
  40.9450000  33.8090000  37.7070000  39.1680000  32.9260000  38.1160000
  41.7820000  34.4850000  35.4560000  40.7890000  34.2700000  33.6960000
  37.7640000  32.5510000  36.1420000  38.5770000  33.2250000  33.9230000
  37.9430000  32.4500000  37.5170000  39.3310000  32.8010000  39.5380000
  41.7810000  34.8420000  32.8640000  39.5580000  33.7820000  33.0920000
  36.9590000  32.2300000  35.7530000  37.7630000  32.9080000  33.5500000
  36.9470000  31.8640000  38.3800000  40.1310000  33.1070000  39.9500000
  38.3530000  32.2500000  40.3000000  41.6020000  34.9430000  31.4890000
  42.5860000  35.1630000  33.2530000  39.4020000  33.9020000  31.7000000
  37.1450000  31.7670000  39.7150000  36.1370000  31.5410000  38.0050000
  38.4740000  32.1850000  41.2410000  42.5980000  35.5290000  30.6260000
  40.3780000  34.4670000  30.8900000  38.6000000  33.5840000  31.3000000
  36.4770000  31.3760000  40.2650000  42.4000000  35.6260000  29.2910000
  43.4080000  35.8530000  31.0020000  40.2140000  34.5920000  29.4680000
  41.1930000  35.1430000  28.7060000  43.0690000  36.0180000  28.7410000
  39.4140000  34.2860000  29.0560000  41.0720000  35.2080000  27.7660000
  38.5560000  27.2290000   4.9780000  38.3990000  27.3480000   3.5870000
  37.5740000  26.6710000   5.8090000  39.7860000  27.7170000   5.5830000
  37.5980000  27.0300000   3.1860000  39.3750000  27.9130000   2.7770000
  36.7610000  26.3540000   5.4360000  37.7540000  26.5690000   7.1960000
  40.7780000  28.2880000   4.7500000  39.9660000  27.6150000   6.9700000
  40.6000000  28.3890000   3.3760000  39.2110000  28.0390000   1.3540000
  36.7620000  25.9980000   8.0280000  38.9850000  27.0570000   7.8010000
  41.5840000  28.6090000   5.1400000  40.7790000  27.9320000   7.3430000
  41.5960000  28.9750000   2.5130000  38.4110000  27.7320000   0.9420000
  40.1900000  28.5900000   0.5920000  36.9410000  25.8970000   9.4030000
  35.9570000  25.6770000   7.6390000  39.1410000  26.9380000   9.1920000
  41.3980000  29.0720000   1.1770000  42.4050000  29.2990000   2.8880000
  40.0690000  28.6550000  -0.3480000  35.9450000  25.3110000  10.2660000
  38.1650000  26.3730000  10.0020000  39.9420000  27.2550000   9.5930000
  42.0660000  29.4640000   0.6280000  36.1430000  25.2140000  11.6020000
  35.1350000  24.9870000   9.8910000  38.3290000  26.2470000  11.4250000
  37.3500000  25.6960000  12.1860000  35.4740000  24.8220000  12.1510000
  39.1290000  26.5540000  11.8360000  37.4710000  25.6310000  13.1270000
  39.4860000  30.3340000  21.8580000  39.6420000  30.2150000  23.2490000
  40.4670000  30.8910000  21.0270000  38.2550000  29.8460000  21.2530000
  40.4440000  30.5320000  23.6500000  38.6660000  29.6490000  24.0590000
  41.2810000  31.2090000  21.3990000  40.2880000  30.9930000  19.6390000
  37.2630000  29.2750000  22.0850000  38.0760000  29.9480000  19.8660000
  37.4420000  29.1740000  23.4600000  38.8300000  29.5240000  25.4810000
  41.2800000  31.5650000  18.8070000  39.0570000  30.5050000  19.0350000
  36.4580000  28.9530000  21.6960000  37.2620000  29.6310000  19.4930000
  36.4460000  28.5880000  24.3230000  39.6300000  29.8310000  25.8930000
  37.8510000  28.9730000  26.2430000  41.1010000  31.6660000  17.4320000
  42.0850000  31.8860000  19.1970000  38.9000000  30.6250000  17.6430000
  36.6440000  28.4900000  25.6590000  35.6360000  28.2640000  23.9480000
  37.9720000  28.9080000  27.1840000  42.0970000  32.2520000  16.5690000
  39.8760000  31.1900000  16.8340000  38.0990000  30.3070000  17.2430000
  35.9750000  28.0990000  26.2080000  41.8990000  32.3490000  15.2340000
  42.9070000  32.5760000  16.9450000  39.7130000  31.3150000  15.4110000
  40.6920000  31.8670000  14.6490000  42.5670000  32.7410000  14.6840000
  38.9130000  31.0090000  14.9990000  40.5700000  31.9310000  13.7090000
  41.0620000  43.6130000  75.2620000  40.9050000  43.7320000  73.8710000
  40.0810000  43.0550000  76.0930000  42.2930000  44.1010000  75.8670000
  40.1040000  43.4150000  73.4700000  41.8810000  44.2970000  73.0610000
  39.2670000  42.7380000  75.7200000  40.2600000  42.9530000  77.4800000
  43.2850000  44.6720000  75.0350000  42.4720000  43.9990000  77.2540000
  43.1060000  44.7730000  73.6600000  41.7180000  44.4230000  71.6380000
  39.2680000  42.3820000  78.3130000  41.4910000  43.4410000  78.0850000
  44.0900000  44.9930000  75.4240000  43.2860000  44.3160000  77.6270000
  44.1020000  45.3590000  72.7970000  40.9180000  44.1160000  71.2270000
  42.6970000  44.9740000  70.8770000  39.4470000  42.2810000  79.6870000
  38.4630000  42.0610000  77.9230000  41.6470000  43.3220000  79.4760000
  43.9040000  45.4560000  71.4610000  44.9120000  45.6830000  73.1720000
  42.5750000  45.0390000  69.9360000  38.4510000  41.6950000  80.5500000
  40.6710000  42.7570000  80.2860000  42.4490000  43.6400000  79.8770000
  44.5720000  45.8480000  70.9120000  38.6490000  41.5980000  81.8860000
  37.6410000  41.3710000  80.1750000  40.8350000  42.6320000  81.7090000
  39.8560000  42.0800000  82.4710000  37.9800000  41.2060000  82.4350000
  41.6350000  42.9380000  82.1210000  39.9770000  42.0160000  83.4110000
  41.5630000  46.8900000  89.3190000  41.4070000  47.0090000  87.9270000
  40.5820000  46.3320000  90.1500000  42.7940000  47.3780000  89.9230000
  40.6050000  46.6910000  87.5270000  42.3830000  47.5740000  87.1180000
  39.7690000  46.0150000  89.7770000  40.7610000  46.2300000  91.5370000
  43.7860000  47.9490000  89.0910000  42.9730000  47.2760000  91.3110000
  43.6070000  48.0500000  87.7170000  42.2190000  47.7000000  85.6950000
  39.7690000  45.6590000  92.3690000  41.9920000  46.7180000  92.1420000
  44.5910000  48.2700000  89.4810000  43.7870000  47.5930000  91.6830000
  44.6030000  48.6360000  86.8530000  41.4190000  47.3930000  85.2830000
  43.1980000  48.2510000  84.9330000  39.9480000  45.5580000  93.7440000
  38.9640000  45.3380000  91.9800000  42.1490000  46.5990000  93.5330000
  44.4050000  48.7330000  85.5180000  45.4130000  48.9600000  87.2290000
  43.0770000  48.3160000  83.9930000  38.9520000  44.9720000  94.6070000
  41.1730000  46.0340000  94.3430000  42.9500000  46.9160000  93.9340000
  45.0740000  49.1250000  84.9680000  39.1500000  44.8750000  95.9430000
  38.1420000  44.6480000  94.2320000  41.3370000  45.9080000  95.7650000
  40.3580000  45.3570000  96.5270000  38.4820000  44.4830000  96.4920000
  42.1360000  46.2150000  96.1770000  40.4790000  45.2920000  97.4680000
  39.7930000  38.1840000  19.0350000  39.6370000  38.3030000  17.6430000
  38.8120000  37.6270000  19.8660000  41.0240000  38.6720000  19.6390000
  38.8350000  37.9860000  17.2430000  40.6120000  38.8690000  16.8340000
  37.9980000  37.3100000  19.4930000  38.9910000  37.5250000  21.2530000
  42.0160000  39.2440000  18.8070000  41.2030000  38.5700000  21.0270000
  41.8370000  39.3450000  17.4320000  40.4490000  38.9940000  15.4110000
  37.9990000  36.9530000  22.0850000  40.2220000  38.0130000  21.8580000
  42.8210000  39.5650000  19.1970000  42.0170000  38.8870000  21.3990000
  42.8330000  39.9310000  16.5690000  39.6490000  38.6880000  14.9990000
  41.4280000  39.5450000  14.6490000  38.1780000  36.8520000  23.4600000
  37.1940000  36.6320000  21.6960000  40.3780000  37.8930000  23.2490000
  42.6350000  40.0280000  15.2340000  43.6430000  40.2550000  16.9450000
  41.3060000  39.6100000  13.7090000  37.1820000  36.2660000  24.3230000
  39.4030000  37.3280000  24.0590000  41.1800000  38.2110000  23.6500000
  43.3040000  40.4190000  14.6840000  37.3800000  36.1690000  25.6590000
  36.3720000  35.9420000  23.9480000  39.5660000  37.2030000  25.4810000
  38.5870000  36.6520000  26.2430000  36.7110000  35.7770000  26.2080000
  40.3660000  37.5090000  25.8930000  38.7090000  36.5870000  27.1840000
  40.2940000  41.4610000  33.0920000  40.1380000  41.5800000  31.7000000
  39.3130000  40.9040000  33.9230000  41.5250000  41.9490000  33.6960000
  39.3360000  41.2630000  31.3000000  41.1140000  42.1460000  30.8900000
  38.5000000  40.5860000  33.5500000  39.4920000  40.8020000  35.3100000
  42.5170000  42.5200000  32.8640000  41.7040000  41.8470000  35.0840000
  42.3380000  42.6210000  31.4890000  40.9500000  42.2710000  29.4680000
  38.5010000  40.2300000  36.1420000  40.7230000  41.2900000  35.9140000
  43.3220000  42.8420000  33.2530000  42.5180000  42.1640000  35.4560000
  43.3340000  43.2070000  30.6260000  40.1500000  41.9640000  29.0560000
  41.9290000  42.8220000  28.7060000  38.6790000  40.1290000  37.5170000
  37.6950000  39.9090000  35.7530000  40.8800000  41.1700000  37.3060000
  43.1360000  43.3050000  29.2910000  44.1440000  43.5310000  31.0020000
  41.8080000  42.8870000  27.7660000  37.6830000  39.5430000  38.3800000
  39.9040000  40.6050000  38.1160000  41.6810000  41.4880000  37.7070000
  43.8050000  43.6960000  28.7410000  37.8810000  39.4460000  39.7150000
  36.8730000  39.2190000  38.0050000  40.0680000  40.4800000  39.5380000
  39.0890000  39.9290000  40.3000000  37.2130000  39.0540000  40.2650000
  40.8670000  40.7860000  39.9500000  39.2100000  39.8640000  41.2410000
  42.7280000  54.3970000  92.1420000  42.8850000  54.2770000  93.5330000
  43.7090000  54.9540000  91.3110000  41.4980000  53.9090000  91.5370000
  43.6860000  54.5950000  93.9340000  41.9090000  53.7120000  94.3430000
  44.5230000  55.2710000  91.6830000  43.5300000  55.0560000  89.9230000
  40.5060000  53.3370000  92.3690000  41.3180000  54.0110000  90.1500000
  40.6840000  53.2360000  93.7440000  42.0730000  53.5870000  95.7650000
  44.5220000  55.6280000  89.0910000  42.2990000  54.5680000  89.3190000
  39.7000000  53.0160000  91.9800000  40.5050000  53.6940000  89.7770000
  39.6880000  52.6500000  94.6070000  42.8720000  53.8930000  96.1770000
  41.0940000  53.0360000  96.5270000  44.3430000  55.7290000  87.7170000
  45.3270000  55.9490000  89.4810000  42.1430000  54.6880000  87.9270000
  39.8860000  52.5530000  95.9430000  38.8780000  52.3260000  94.2320000
  41.2150000  52.9710000  97.4680000  45.3390000  56.3150000  86.8530000
  43.1190000  55.2530000  87.1180000  41.3410000  54.3700000  87.5270000
  39.2180000  52.1620000  96.4920000  45.1410000  56.4120000  85.5180000
  46.1490000  56.6390000  87.2290000  42.9550000  55.3780000  85.6950000
  43.9340000  55.9290000  84.9330000  45.8100000  56.8040000  84.9680000
  42.1550000  55.0720000  85.2830000  43.8130000  55.9940000  83.9930000
  42.2270000  51.1200000  78.0850000  42.3840000  51.0010000  79.4760000
  43.2080000  51.6770000  77.2540000  40.9960000  50.6320000  77.4800000
  43.1850000  51.3180000  79.8770000  41.4080000  50.4350000  80.2860000
  44.0220000  51.9950000  77.6270000  43.0290000  51.7790000  75.8670000
  40.0040000  50.0610000  78.3130000  40.8170000  50.7340000  76.0930000
  40.1830000  49.9590000  79.6870000  41.5710000  50.3100000  81.7090000
  44.0210000  52.3510000  75.0350000  41.7980000  51.2910000  75.2620000
  39.1990000  49.7390000  77.9230000  40.0030000  50.4170000  75.7200000
  39.1870000  49.3740000  80.5500000  42.3710000  50.6170000  82.1210000
  40.5920000  49.7590000  82.4710000  43.8420000  52.4520000  73.6600000
  44.8260000  52.6720000  75.4240000  41.6420000  51.4110000  73.8710000
  39.3850000  49.2760000  81.8860000  38.3770000  49.0500000  80.1750000
  40.7140000  49.6940000  83.4110000  44.8380000  53.0380000  72.7970000
  42.6180000  51.9760000  73.0610000  40.8400000  51.0930000  73.4700000
  38.7170000  48.8850000  82.4350000  44.6400000  53.1350000  71.4610000
  45.6480000  53.3620000  73.1720000  42.4540000  52.1010000  71.6380000
  43.4330000  52.6520000  70.8770000  45.3090000  53.5270000  70.9120000
  41.6540000  51.7950000  71.2270000  43.3120000  52.7170000  69.9360000
  39.2920000  34.9070000   4.9780000  39.1350000  35.0270000   3.5870000
  38.3110000  34.3500000   5.8090000  40.5230000  35.3950000   5.5830000
  38.3340000  34.7090000   3.1860000  40.1110000  35.5920000   2.7770000
  37.4970000  34.0330000   5.4360000  38.4900000  34.2480000   7.1960000
  41.5140000  35.9670000   4.7500000  40.7020000  35.2930000   6.9700000
  41.3360000  36.0680000   3.3760000  39.9470000  35.7170000   1.3540000
  37.4980000  33.6760000   8.0280000  39.7210000  34.7360000   7.8010000
  42.3200000  36.2880000   5.1400000  41.5150000  35.6100000   7.3430000
  42.3320000  36.6540000   2.5130000  39.1480000  35.4110000   0.9420000
  40.9260000  36.2680000   0.5920000  37.6770000  33.5750000   9.4030000
  36.6930000  33.3550000   7.6390000  39.8770000  34.6160000   9.1920000
  42.1340000  36.7510000   1.1770000  43.1420000  36.9780000   2.8880000
  40.8050000  36.3330000  -0.3480000  36.6810000  32.9890000  10.2660000
  38.9010000  34.0510000  10.0020000  40.6790000  34.9340000   9.5930000
  42.8020000  37.1430000   0.6280000  36.8790000  32.8920000  11.6020000
  35.8710000  32.6650000   9.8910000  39.0650000  33.9260000  11.4250000
  38.0860000  33.3750000  12.1860000  36.2100000  32.5010000  12.1510000
  39.8650000  34.2320000  11.8360000  38.2070000  33.3100000  13.1270000
  42.0330000  55.6930000  61.2050000  41.8760000  55.8130000  59.8140000
  41.0520000  55.1360000  62.0360000  43.2640000  56.1810000  61.8100000
  41.0750000  55.4950000  59.4130000  42.8520000  56.3780000  59.0040000
  40.2380000  54.8190000  61.6640000  41.2310000  55.0340000  63.4240000
  44.2560000  56.7530000  60.9780000  43.4430000  56.0790000  63.1970000
  44.0770000  56.8540000  59.6030000  42.6890000  56.5030000  57.5820000
  40.2390000  54.4620000  64.2560000  42.4620000  55.5220000  64.0280000
  45.0610000  57.0740000  61.3670000  44.2570000  56.3960000  63.5700000
  45.0730000  57.4400000  58.7400000  41.8890000  56.1970000  57.1700000
  43.6680000  57.0540000  56.8200000  40.4180000  54.3610000  65.6300000
  39.4340000  54.1410000  63.8660000  42.6180000  55.4020000  65.4200000
  44.8750000  57.5370000  57.4040000  45.8830000  57.7640000  59.1150000
  43.5460000  57.1190000  55.8790000  39.4220000  53.7750000  66.4940000
  41.6420000  54.8370000  66.2290000  43.4200000  55.7200000  65.8200000
  45.5430000  57.9290000  56.8550000  39.6200000  53.6780000  67.8290000
  38.6120000  53.4510000  66.1180000  41.8060000  54.7120000  67.6520000
  40.8270000  54.1610000  68.4140000  38.9510000  53.2860000  68.3790000
  42.6060000  55.0180000  68.0640000  40.9480000  54.0960000  69.3540000
  41.9610000  52.2450000  49.9710000  42.1170000  52.1260000  51.3630000
  42.9420000  52.8020000  49.1400000  40.7300000  51.7570000  49.3670000
  42.9180000  52.4430000  51.7630000  41.1410000  51.5600000  52.1730000
  43.7550000  53.1200000  49.5130000  42.7620000  52.9040000  47.7530000
  39.7380000  51.1850000  50.1990000  40.5500000  51.8590000  47.9790000
  39.9170000  51.0840000  51.5740000  41.3050000  51.4350000  53.5950000
  43.7540000  53.4760000  46.9210000  41.5320000  52.4160000  47.1490000
  38.9330000  50.8640000  49.8100000  39.7370000  51.5420000  47.6070000
  38.9210000  50.4990000  52.4370000  42.1050000  51.7410000  54.0070000
  40.3260000  50.8840000  54.3570000  43.5760000  53.5770000  45.5460000
  44.5600000  53.7970000  47.3100000  41.3750000  52.5360000  45.7570000
  39.1190000  50.4010000  53.7720000  38.1110000  50.1750000  52.0610000
  40.4470000  50.8190000  55.2970000  44.5720000  54.1630000  44.6830000
  42.3510000  53.1010000  44.9470000  40.5740000  52.2180000  45.3560000
  38.4500000  50.0100000  54.3220000  44.3740000  54.2600000  43.3480000
  45.3810000  54.4870000  45.0580000  42.1870000  53.2260000  43.5250000
  43.1660000  53.7770000  42.7630000  45.0420000  54.6520000  42.7980000
  41.3870000  52.9200000  43.1130000  43.0450000  53.8420000  41.8220000
  43.2700000  66.6490000  75.2620000  43.1140000  66.7680000  73.8710000
  42.2890000  66.0910000  76.0930000  44.5010000  67.1370000  75.8670000
  42.3120000  66.4500000  73.4700000  44.0900000  67.3330000  73.0610000
  41.4760000  65.7740000  75.7200000  42.4680000  65.9890000  77.4800000
  45.4930000  67.7080000  75.0350000  44.6800000  67.0350000  77.2540000
  45.3140000  67.8090000  73.6600000  43.9260000  67.4590000  71.6380000
  41.4770000  65.4180000  78.3130000  43.6990000  66.4770000  78.0850000
  46.2980000  68.0290000  75.4240000  45.4940000  67.3520000  77.6270000
  46.3100000  68.3950000  72.7970000  43.1260000  67.1520000  71.2270000
  44.9050000  68.0100000  70.8770000  41.6550000  65.3170000  79.6870000
  40.6710000  65.0970000  77.9230000  43.8560000  66.3580000  79.4760000
  46.1120000  68.4920000  71.4610000  47.1200000  68.7190000  73.1720000
  44.7840000  68.0750000  69.9360000  40.6590000  64.7310000  80.5500000
  42.8800000  65.7930000  80.2860000  44.6570000  66.6750000  79.8770000
  46.7810000  68.8840000  70.9120000  40.8570000  64.6340000  81.8860000
  39.8490000  64.4070000  80.1750000  43.0440000  65.6670000  81.7090000
  42.0650000  65.1160000  82.4710000  40.1890000  64.2420000  82.4350000
  43.8430000  65.9740000  82.1210000  42.1860000  65.0510000  83.4110000
  42.2680000  60.0950000  47.1490000  42.1110000  60.2140000  45.7570000
  41.2870000  59.5380000  47.9790000  43.4990000  60.5830000  47.7530000
  41.3100000  59.8970000  45.3560000  43.0870000  60.7800000  44.9470000
  40.4730000  59.2200000  47.6070000  41.4660000  59.4360000  49.3670000
  44.4900000  61.1540000  46.9210000  43.6780000  60.4810000  49.1400000
  44.3120000  61.2560000  45.5460000  42.9230000  60.9050000  43.5250000
  40.4740000  58.8640000  50.1990000  42.6970000  59.9240000  49.9710000
  45.2960000  61.4760000  47.3100000  44.4910000  60.7980000  49.5130000
  45.3080000  61.8410000  44.6830000  42.1240000  60.5980000  43.1130000
  43.9020000  61.4560000  42.7630000  40.6530000  58.7630000  51.5740000
  39.6690000  58.5430000  49.8100000  42.8530000  59.8040000  51.3630000
  45.1100000  61.9390000  43.3480000  46.1180000  62.1650000  45.0580000
  43.7810000  61.5210000  41.8220000  39.6570000  58.1770000  52.4370000
  41.8770000  59.2390000  52.1730000  43.6550000  60.1220000  51.7630000
  45.7780000  62.3300000  42.7980000  39.8550000  58.0800000  53.7720000
  38.8470000  57.8530000  52.0610000  42.0410000  59.1140000  53.5950000
  41.0620000  58.5630000  54.3570000  39.1860000  57.6880000  54.3220000
  42.8410000  59.4200000  54.0070000  41.1830000  58.4980000  55.2970000
  43.1980000  63.2000000  64.0280000  43.3540000  63.0810000  65.4200000
  44.1790000  63.7580000  63.1970000  41.9670000  62.7120000  63.4240000
  44.1560000  63.3990000  65.8200000  42.3790000  62.5160000  66.2290000
  44.9930000  64.0750000  63.5700000  44.0000000  63.8600000  61.8100000
  40.9750000  62.1410000  64.2560000  41.7880000  62.8140000  62.0360000
  41.1540000  62.0400000  65.6300000  42.5420000  62.3900000  67.6520000
  44.9920000  64.4310000  60.9780000  42.7690000  63.3720000  61.2050000
  40.1700000  61.8200000  63.8660000  40.9740000  62.4970000  61.6640000
  40.1580000  61.4540000  66.4940000  43.3420000  62.6970000  68.0640000
  41.5630000  61.8390000  68.4140000  44.8130000  64.5320000  59.6030000
  45.7970000  64.7520000  61.3670000  42.6130000  63.4910000  59.8140000
  40.3560000  61.3570000  67.8290000  39.3480000  61.1300000  66.1180000
  41.6850000  61.7740000  69.3540000  45.8090000  65.1180000  58.7400000
  43.5880000  64.0560000  59.0040000  41.8110000  63.1740000  59.4130000
  39.6880000  60.9650000  68.3790000  45.6110000  65.2150000  57.4040000
  46.6190000  65.4420000  59.1150000  43.4250000  64.1820000  57.5820000
  44.4040000  64.7330000  56.8200000  46.2800000  65.6070000  56.8550000
  42.6250000  63.8750000  57.1700000  44.2830000  64.7980000  55.8790000
  42.1960000  56.6470000  35.9140000  42.3520000  56.5270000  37.3060000
  43.1770000  57.2040000  35.0840000  40.9650000  56.1590000  35.3100000
  43.1530000  56.8450000  37.7070000  41.3760000  55.9620000  38.1160000
  43.9900000  57.5210000  35.4560000  42.9970000  57.3060000  33.6960000
  39.9730000  55.5870000  36.1420000  40.7850000  56.2610000  33.9230000
  40.1510000  55.4860000  37.5170000  41.5400000  55.8370000  39.5380000
  43.9890000  57.8780000  32.8640000  41.7660000  56.8180000  33.0920000
  39.1670000  55.2660000  35.7530000  39.9720000  55.9440000  33.5500000
  39.1550000  54.9000000  38.3800000  42.3400000  56.1430000  39.9500000
  40.5610000  55.2860000  40.3000000  43.8110000  57.9790000  31.4890000
  44.7950000  58.1990000  33.2530000  41.6100000  56.9370000  31.7000000
  39.3530000  54.8030000  39.7150000  38.3460000  54.5760000  38.0050000
  40.6820000  55.2210000  41.2410000  44.8070000  58.5650000  30.6260000
  42.5860000  57.5030000  30.8900000  40.8090000  56.6200000  31.3000000
  38.6850000  54.4110000  40.2650000  44.6090000  58.6620000  29.2910000
  45.6160000  58.8890000  31.0020000  42.4220000  57.6280000  29.4680000
  43.4010000  58.1790000  28.7060000  45.2770000  59.0530000  28.7410000
  41.6220000  57.3220000  29.0560000  43.2800000  58.2440000  27.7660000
  44.2010000  69.7540000  92.1420000  44.3570000  69.6350000  93.5330000
  45.1820000  70.3110000  91.3110000  42.9700000  69.2660000  91.5370000
  45.1580000  69.9520000  93.9340000  43.3810000  69.0690000  94.3430000
  45.9950000  70.6290000  91.6830000  45.0020000  70.4130000  89.9230000
  41.9780000  68.6950000  92.3690000  42.7900000  69.3680000  90.1500000
  42.1570000  68.5930000  93.7440000  43.5450000  68.9440000  95.7650000
  45.9940000  70.9850000  89.0910000  43.7720000  69.9250000  89.3190000
  41.1730000  68.3730000  91.9800000  41.9770000  69.0510000  89.7770000
  41.1610000  68.0080000  94.6070000  44.3450000  69.2510000  96.1770000
  42.5660000  68.3930000  96.5270000  45.8160000  71.0860000  87.7170000
  46.8000000  71.3060000  89.4810000  43.6150000  70.0450000  87.9270000
  41.3580000  67.9100000  95.9430000  40.3510000  67.6840000  94.2320000
  42.6870000  68.3280000  97.4680000  46.8120000  71.6720000  86.8530000
  44.5910000  70.6100000  87.1180000  42.8140000  69.7270000  87.5270000
  40.6900000  67.5190000  96.4920000  46.6140000  71.7690000  85.5180000
  47.6210000  71.9960000  87.2290000  44.4270000  70.7350000  85.6950000
  45.4060000  71.2860000  84.9330000  47.2820000  72.1610000  84.9680000
  43.6270000  70.4290000  85.2830000  45.2850000  71.3510000  83.9930000
  44.5080000  77.6040000  89.3190000  44.3510000  77.7230000  87.9270000
  43.5260000  77.0470000  90.1500000  45.7380000  78.0920000  89.9230000
  43.5500000  77.4060000  87.5270000  45.3270000  78.2890000  87.1180000
  42.7130000  76.7290000  89.7770000  43.7060000  76.9450000  91.5370000
  46.7300000  78.6640000  89.0910000  45.9180000  77.9900000  91.3110000
  46.5520000  78.7650000  87.7170000  45.1630000  78.4140000  85.6950000
  42.7140000  76.3730000  92.3690000  44.9370000  77.4330000  92.1420000
  47.5360000  78.9850000  89.4810000  46.7310000  78.3070000  91.6830000
  47.5480000  79.3500000  86.8530000  44.3640000  78.1080000  85.2830000
  46.1420000  78.9650000  84.9330000  42.8930000  76.2720000  93.7440000
  41.9090000  76.0520000  91.9800000  45.0930000  77.3130000  93.5330000
  47.3500000  79.4480000  85.5180000  48.3580000  79.6740000  87.2290000
  46.0210000  79.0300000  83.9930000  41.8970000  75.6860000  94.6070000
  44.1170000  76.7480000  94.3430000  45.8940000  77.6310000  93.9340000
  48.0180000  79.8390000  84.9680000  42.0950000  75.5890000  95.9430000
  41.0870000  75.3620000  94.2320000  44.2810000  76.6230000  95.7650000
  43.3020000  76.0720000  96.5270000  41.4260000  75.1970000  96.4920000
  45.0810000  76.9290000  96.1770000  43.4230000  76.0070000  97.4680000
  43.5050000  71.0500000  61.2050000  43.3490000  71.1700000  59.8140000
  42.5240000  70.4930000  62.0360000  44.7360000  71.5380000  61.8100000
  42.5470000  70.8520000  59.4130000  44.3250000  71.7350000  59.0040000
  41.7100000  70.1760000  61.6640000  42.7030000  70.3910000  63.4240000
  45.7280000  72.1100000  60.9780000  44.9150000  71.4360000  63.1970000
  45.5490000  72.2110000  59.6030000  44.1610000  71.8600000  57.5820000
  41.7110000  69.8190000  64.2560000  43.9340000  70.8790000  64.0280000
  46.5330000  72.4310000  61.3670000  45.7290000  71.7540000  63.5700000
  46.5450000  72.7970000  58.7400000  43.3610000  71.5540000  57.1700000
  45.1400000  72.4110000  56.8200000  41.8900000  69.7180000  65.6300000
  40.9060000  69.4980000  63.8660000  44.0910000  70.7600000  65.4200000
  46.3470000  72.8940000  57.4040000  47.3550000  73.1210000  59.1150000
  45.0190000  72.4760000  55.8790000  40.8940000  69.1330000  66.4940000
  43.1150000  70.1940000  66.2290000  44.8920000  71.0770000  65.8200000
  47.0160000  73.2860000  56.8550000  41.0920000  69.0350000  67.8290000
  40.0840000  68.8090000  66.1180000  43.2780000  70.0690000  67.6520000
  42.3000000  69.5180000  68.4140000  40.4240000  68.6440000  68.3790000
  44.0780000  70.3750000  68.0640000  42.4210000  69.4530000  69.3540000
  44.0060000  74.3270000  75.2620000  43.8500000  74.4470000  73.8710000
  43.0250000  73.7700000  76.0930000  45.2370000  74.8150000  75.8670000
  43.0490000  74.1290000  73.4700000  44.8260000  75.0120000  73.0610000
  42.2120000  73.4530000  75.7200000  43.2050000  73.6680000  77.4800000
  46.2290000  75.3870000  75.0350000  45.4170000  74.7130000  77.2540000
  46.0500000  75.4880000  73.6600000  44.6620000  75.1370000  71.6380000
  42.2130000  73.0960000  78.3130000  44.4350000  74.1560000  78.0850000
  47.0340000  75.7080000  75.4240000  46.2300000  75.0300000  77.6270000
  47.0460000  76.0740000  72.7970000  43.8620000  74.8310000  71.2270000
  45.6410000  75.6880000  70.8770000  42.3910000  72.9950000  79.6870000
  41.4070000  72.7750000  77.9230000  44.5920000  74.0360000  79.4760000
  46.8480000  76.1710000  71.4610000  47.8560000  76.3980000  73.1720000
  45.5200000  75.7530000  69.9360000  41.3950000  72.4090000  80.5500000
  43.6160000  73.4710000  80.2860000  45.3930000  74.3540000  79.8770000
  47.5170000  76.5630000  70.9120000  41.5930000  72.3120000  81.8860000
  40.5860000  72.0850000  80.1750000  43.7800000  73.3460000  81.7090000
  42.8010000  72.7950000  82.4710000  40.9250000  71.9200000  82.4350000
  44.5800000  73.6520000  82.1210000  42.9220000  72.7300000  83.4110000
  42.2360000  65.6220000   4.9780000  42.0800000  65.7410000   3.5870000
  41.2550000  65.0640000   5.8090000  43.4670000  66.1100000   5.5830000
  41.2780000  65.4230000   3.1860000  43.0560000  66.3060000   2.7770000
  40.4420000  64.7470000   5.4360000  41.4340000  64.9620000   7.1960000
  44.4590000  66.6810000   4.7500000  43.6460000  66.0080000   6.9700000
  44.2800000  66.7820000   3.3760000  42.8920000  66.4320000   1.3540000
  40.4430000  64.3910000   8.0280000  42.6650000  65.4500000   7.8010000
  45.2640000  67.0020000   5.1400000  44.4600000  66.3250000   7.3430000
  45.2760000  67.3680000   2.5130000  42.0920000  66.1250000   0.9420000
  43.8710000  66.9830000   0.5920000  40.6210000  64.2900000   9.4030000
  39.6370000  64.0700000   7.6390000  42.8220000  65.3310000   9.1920000
  45.0780000  67.4650000   1.1770000  46.0860000  67.6920000   2.8880000
  43.7500000  67.0480000  -0.3480000  39.6250000  63.7040000  10.2660000
  41.8460000  64.7660000  10.0020000  43.6230000  65.6480000   9.5930000
  45.7470000  67.8570000   0.6280000  39.8230000  63.6070000  11.6020000
  38.8150000  63.3800000   9.8910000  42.0100000  64.6400000  11.4250000
  41.0310000  64.0890000  12.1860000  39.1550000  63.2150000  12.1510000
  42.8090000  64.9470000  11.8360000  41.1520000  64.0240000  13.1270000
  43.6680000  72.0040000  35.9140000  43.8240000  71.8850000  37.3060000
  44.6490000  72.5610000  35.0840000  42.4370000  71.5160000  35.3100000
  44.6260000  72.2020000  37.7070000  42.8480000  71.3190000  38.1160000
  45.4620000  72.8780000  35.4560000  44.4700000  72.6630000  33.6960000
  41.4450000  70.9440000  36.1420000  42.2580000  71.6180000  33.9230000
  41.6240000  70.8430000  37.5170000  43.0120000  71.1940000  39.5380000
  45.4610000  73.2350000  32.8640000  43.2390000  72.1750000  33.0920000
  40.6400000  70.6230000  35.7530000  41.4440000  71.3010000  33.5500000
  40.6280000  70.2570000  38.3800000  43.8120000  71.5000000  39.9500000
  42.0330000  70.6430000  40.3000000  45.2830000  73.3360000  31.4890000
  46.2670000  73.5560000  33.2530000  43.0820000  72.2950000  31.7000000
  40.8260000  70.1600000  39.7150000  39.8180000  69.9330000  38.0050000
  42.1540000  70.5780000  41.2410000  46.2790000  73.9220000  30.6260000
  44.0580000  72.8600000  30.8900000  42.2810000  71.9770000  31.3000000
  40.1570000  69.7690000  40.2650000  46.0810000  74.0190000  29.2910000
  47.0890000  74.2460000  31.0020000  43.8940000  72.9850000  29.4680000
  44.8730000  73.5360000  28.7060000  46.7490000  74.4110000  28.7410000
  43.0950000  72.6790000  29.0560000  44.7520000  73.6010000  27.7660000
  43.7400000  75.4520000  47.1490000  43.5840000  75.5720000  45.7570000
  42.7590000  74.8950000  47.9790000  44.9710000  75.9400000  47.7530000
  42.7820000  75.2540000  45.3560000  44.5590000  76.1370000  44.9470000
  41.9450000  74.5780000  47.6070000  42.9380000  74.7930000  49.3670000
  45.9630000  76.5120000  46.9210000  45.1500000  75.8380000  49.1400000
  45.7840000  76.6130000  45.5460000  44.3960000  76.2620000  43.5250000
  41.9460000  74.2210000  50.1990000  44.1690000  75.2810000  49.9710000
  46.7680000  76.8330000  47.3100000  45.9640000  76.1550000  49.5130000
  46.7800000  77.1990000  44.6830000  43.5960000  75.9560000  43.1130000
  45.3750000  76.8130000  42.7630000  42.1250000  74.1200000  51.5740000
  41.1410000  73.9000000  49.8100000  44.3250000  75.1610000  51.3630000
  46.5820000  77.2960000  43.3480000  47.5900000  77.5230000  45.0580000
  45.2530000  76.8780000  41.8220000  41.1290000  73.5340000  52.4370000
  43.3500000  74.5960000  52.1730000  45.1270000  75.4790000  51.7630000
  47.2510000  77.6870000  42.7980000  41.3270000  73.4370000  53.7720000
  40.3190000  73.2100000  52.0610000  43.5130000  74.4710000  53.5950000
  42.5340000  73.9200000  54.3570000  40.6580000  73.0450000  54.3220000
  44.3130000  74.7770000  54.0070000  42.6560000  73.8550000  55.2970000
  44.7430000  82.0060000  75.2620000  44.5860000  82.1250000  73.8710000
  43.7610000  81.4480000  76.0930000  45.9730000  82.4940000  75.8670000
  43.7850000  81.8080000  73.4700000  45.5620000  82.6900000  73.0610000
  42.9480000  81.1310000  75.7200000  43.9410000  81.3460000  77.4800000
  46.9650000  83.0650000  75.0350000  46.1530000  82.3920000  77.2540000
  46.7870000  83.1660000  73.6600000  45.3980000  82.8160000  71.6380000
  42.9490000  80.7750000  78.3130000  45.1720000  81.8340000  78.0850000
  47.7710000  83.3860000  75.4240000  46.9660000  82.7090000  77.6270000
  47.7830000  83.7520000  72.7970000  44.5980000  82.5090000  71.2270000
  46.3770000  83.3670000  70.8770000  43.1270000  80.6740000  79.6870000
  42.1430000  80.4540000  77.9230000  45.3280000  81.7150000  79.4760000
  47.5850000  83.8490000  71.4610000  48.5920000  84.0760000  73.1720000
  46.2560000  83.4320000  69.9360000  42.1310000  80.0880000  80.5500000
  44.3520000  81.1500000  80.2860000  46.1290000  82.0330000  79.8770000
  48.2530000  84.2410000  70.9120000  42.3290000  79.9910000  81.8860000
  41.3220000  79.7640000  80.1750000  44.5160000  81.0240000  81.7090000
  43.5370000  80.4730000  82.4710000  41.6610000  79.5990000  82.4350000
  45.3160000  81.3310000  82.1210000  43.6580000  80.4090000  83.4110000
  45.2440000  85.2830000  89.3190000  45.0870000  85.4020000  87.9270000
  44.2630000  84.7250000  90.1500000  46.4750000  85.7710000  89.9230000
  44.2860000  85.0840000  87.5270000  46.0630000  85.9670000  87.1180000
  43.4490000  84.4080000  89.7770000  44.4420000  84.6230000  91.5370000
  47.4660000  86.3420000  89.0910000  46.6540000  85.6690000  91.3110000
  47.2880000  86.4430000  87.7170000  45.8990000  86.0930000  85.6950000
  43.4500000  84.0520000  92.3690000  45.6730000  85.1110000  92.1420000
  48.2720000  86.6630000  89.4810000  47.4670000  85.9860000  91.6830000
  48.2840000  87.0290000  86.8530000  45.1000000  85.7860000  85.2830000
  46.8780000  86.6440000  84.9330000  43.6290000  83.9510000  93.7440000
  42.6450000  83.7310000  91.9800000  45.8290000  84.9920000  93.5330000
  48.0860000  87.1260000  85.5180000  49.0940000  87.3530000  87.2290000
  46.7570000  86.7090000  83.9930000  42.6330000  83.3650000  94.6070000
  44.8530000  84.4270000  94.3430000  46.6310000  85.3090000  93.9340000
  48.7540000  87.5180000  84.9680000  42.8310000  83.2680000  95.9430000
  41.8230000  83.0410000  94.2320000  45.0170000  84.3010000  95.7650000
  44.0380000  83.7500000  96.5270000  42.1620000  82.8760000  96.4920000
  45.8170000  84.6080000  96.1770000  44.1590000  83.6850000  97.4680000
  44.2410000  78.7290000  61.2050000  44.0850000  78.8480000  59.8140000
  43.2600000  78.1720000  62.0360000  45.4720000  79.2170000  61.8100000
  43.2830000  78.5310000  59.4130000  45.0610000  79.4140000  59.0040000
  42.4470000  77.8540000  61.6640000  43.4390000  78.0700000  63.4240000
  46.4640000  79.7880000  60.9780000  45.6510000  79.1150000  63.1970000
  46.2850000  79.8900000  59.6030000  44.8970000  79.5390000  57.5820000
  42.4480000  77.4980000  64.2560000  44.6700000  78.5580000  64.0280000
  47.2690000  80.1100000  61.3670000  46.4650000  79.4320000  63.5700000
  47.2810000  80.4750000  58.7400000  44.0970000  79.2320000  57.1700000
  45.8760000  80.0900000  56.8200000  42.6260000  77.3970000  65.6300000
  41.6420000  77.1770000  63.8660000  44.8270000  78.4380000  65.4200000
  47.0830000  80.5730000  57.4040000  48.0910000  80.7990000  59.1150000
  45.7550000  80.1550000  55.8790000  41.6300000  76.8110000  66.4940000
  43.8510000  77.8730000  66.2290000  45.6280000  78.7560000  65.8200000
  47.7520000  80.9640000  56.8550000  41.8280000  76.7140000  67.8290000
  40.8200000  76.4870000  66.1180000  44.0150000  77.7480000  67.6520000
  43.0360000  77.1970000  68.4140000  41.1600000  76.3220000  68.3790000
  44.8140000  78.0540000  68.0640000  43.1570000  77.1320000  69.3540000
  42.9720000  73.3000000   4.9780000  42.8160000  73.4200000   3.5870000
  41.9910000  72.7430000   5.8090000  44.2030000  73.7880000   5.5830000
  42.0150000  73.1020000   3.1860000  43.7920000  73.9850000   2.7770000
  41.1780000  72.4260000   5.4360000  42.1710000  72.6410000   7.1960000
  45.1950000  74.3600000   4.7500000  44.3830000  73.6860000   6.9700000
  45.0160000  74.4610000   3.3760000  43.6280000  74.1100000   1.3540000
  41.1790000  72.0690000   8.0280000  43.4010000  73.1290000   7.8010000
  46.0000000  74.6810000   5.1400000  45.1960000  74.0030000   7.3430000
  46.0120000  75.0470000   2.5130000  42.8280000  73.8040000   0.9420000
  44.6070000  74.6610000   0.5920000  41.3570000  71.9680000   9.4030000
  40.3730000  71.7480000   7.6390000  43.5580000  73.0090000   9.1920000
  45.8140000  75.1440000   1.1770000  46.8220000  75.3710000   2.8880000
  44.4860000  74.7260000  -0.3480000  40.3610000  71.3820000  10.2660000
  42.5820000  72.4440000  10.0020000  44.3590000  73.3270000   9.5930000
  46.4830000  75.5360000   0.6280000  40.5590000  71.2850000  11.6020000
  39.5510000  71.0580000   9.8910000  42.7460000  72.3190000  11.4250000
  41.7670000  71.7680000  12.1860000  39.8910000  70.8930000  12.1510000
  43.5450000  72.6250000  11.8360000  41.8880000  71.7030000  13.1270000
  44.4760000  83.1310000  47.1490000  44.3200000  83.2500000  45.7570000
  43.4950000  82.5730000  47.9790000  45.7070000  83.6190000  47.7530000
  43.5180000  82.9320000  45.3560000  45.2960000  83.8150000  44.9470000
  42.6810000  82.2560000  47.6070000  43.6740000  82.4710000  49.3670000
  46.6990000  84.1900000  46.9210000  45.8860000  83.5170000  49.1400000
  46.5200000  84.2910000  45.5460000  45.1320000  83.9410000  43.5250000
  42.6820000  81.9000000  50.1990000  44.9050000  82.9590000  49.9710000
  47.5040000  84.5110000  47.3100000  46.7000000  83.8340000  49.5130000
  47.5160000  84.8770000  44.6830000  44.3320000  83.6340000  43.1130000
  46.1110000  84.4920000  42.7630000  42.8610000  81.7990000  51.5740000
  41.8770000  81.5790000  49.8100000  45.0620000  82.8400000  51.3630000
  47.3180000  84.9740000  43.3480000  48.3260000  85.2010000  45.0580000
  45.9900000  84.5570000  41.8220000  41.8650000  81.2130000  52.4370000
  44.0860000  82.2750000  52.1730000  45.8630000  83.1580000  51.7630000
  47.9870000  85.3660000  42.7980000  42.0630000  81.1160000  53.7720000
  41.0550000  80.8890000  52.0610000  44.2490000  82.1490000  53.5950000
  43.2700000  81.5980000  54.3570000  41.3950000  80.7240000  54.3220000
  45.0490000  82.4560000  54.0070000  43.3920000  81.5330000  55.2970000
  44.9770000  86.4080000  61.2050000  44.8210000  86.5270000  59.8140000
  43.9960000  85.8500000  62.0360000  46.2080000  86.8950000  61.8100000
  44.0200000  86.2090000  59.4130000  45.7970000  87.0920000  59.0040000
  43.1830000  85.5330000  61.6640000  44.1760000  85.7480000  63.4240000
  47.2000000  87.4670000  60.9780000  46.3880000  86.7940000  63.1970000
  47.0210000  87.5680000  59.6030000  45.6330000  87.2170000  57.5820000
  43.1840000  85.1770000  64.2560000  45.4060000  86.2360000  64.0280000
  48.0050000  87.7880000  61.3670000  47.2010000  87.1110000  63.5700000
  48.0170000  88.1540000  58.7400000  44.8330000  86.9110000  57.1700000
  46.6120000  87.7690000  56.8200000  43.3620000  85.0760000  65.6300000
  42.3780000  84.8560000  63.8660000  45.5630000  86.1170000  65.4200000
  47.8190000  88.2510000  57.4040000  48.8270000  88.4780000  59.1150000
  46.4910000  87.8330000  55.8790000  42.3660000  84.4900000  66.4940000
  44.5870000  85.5520000  66.2290000  46.3640000  86.4340000  65.8200000
  48.4880000  88.6430000  56.8550000  42.5640000  84.3930000  67.8290000
  41.5570000  84.1660000  66.1180000  44.7510000  85.4260000  67.6520000
  43.7720000  84.8750000  68.4140000  41.8960000  84.0010000  68.3790000
  45.5510000  85.7330000  68.0640000  43.8930000  84.8100000  69.3540000
  45.9080000  89.5130000  78.0850000  46.0640000  89.3940000  79.4760000
  46.8890000  90.0700000  77.2540000  44.6770000  89.0250000  77.4800000
  46.8650000  89.7110000  79.8770000  45.0880000  88.8280000  80.2860000
  47.7020000  90.3880000  77.6270000  46.7090000  90.1720000  75.8670000
  43.6850000  88.4540000  78.3130000  44.4970000  89.1270000  76.0930000
  43.8640000  88.3520000  79.6870000  45.2520000  88.7030000  81.7090000
  47.7010000  90.7440000  75.0350000  45.4790000  89.6840000  75.2620000
  42.8800000  88.1320000  77.9230000  43.6840000  88.8100000  75.7200000
  42.8680000  87.7670000  80.5500000  46.0520000  89.0090000  82.1210000
  44.2730000  88.1520000  82.4710000  47.5230000  90.8450000  73.6600000
  48.5070000  91.0650000  75.4240000  45.3220000  89.8040000  73.8710000
  43.0660000  87.6690000  81.8860000  42.0580000  87.4430000  80.1750000
  44.3940000  88.0870000  83.4110000  48.5190000  91.4310000  72.7970000
  46.2980000  90.3690000  73.0610000  44.5210000  89.4860000  73.4700000
  42.3970000  87.2780000  82.4350000  48.3210000  91.5280000  71.4610000
  49.3280000  91.7550000  73.1720000  46.1340000  90.4940000  71.6380000
  47.1130000  91.0450000  70.8770000  48.9890000  91.9200000  70.9120000
  45.3340000  90.1880000  71.2270000  46.9920000  91.1100000  69.9360000
  45.9800000  92.9610000  89.3190000  45.8230000  93.0810000  87.9270000
  44.9990000  92.4040000  90.1500000  47.2110000  93.4490000  89.9230000
  45.0220000  92.7630000  87.5270000  46.7990000  93.6460000  87.1180000
  44.1850000  92.0870000  89.7770000  45.1780000  92.3020000  91.5370000
  48.2030000  94.0210000  89.0910000  47.3900000  93.3470000  91.3110000
  48.0240000  94.1220000  87.7170000  46.6360000  93.7710000  85.6950000
  44.1860000  91.7300000  92.3690000  46.4090000  92.7900000  92.1420000
  49.0080000  94.3420000  89.4810000  48.2040000  93.6640000  91.6830000
  49.0200000  94.7080000  86.8530000  45.8360000  93.4650000  85.2830000
  47.6150000  94.3220000  84.9330000  44.3650000  91.6290000  93.7440000
  43.3810000  91.4090000  91.9800000  46.5650000  92.6700000  93.5330000
  48.8220000  94.8050000  85.5180000  49.8300000  95.0320000  87.2290000
  47.4930000  94.3870000  83.9930000  43.3690000  91.0430000  94.6070000
  45.5890000  92.1050000  94.3430000  47.3670000  92.9880000  93.9340000
  49.4900000  95.1970000  84.9680000  43.5670000  90.9460000  95.9430000
  42.5590000  90.7190000  94.2320000  45.7530000  91.9800000  95.7650000
  44.7740000  91.4290000  96.5270000  42.8980000  90.5540000  96.4920000
  46.5530000  92.2860000  96.1770000  44.8950000  91.3640000  97.4680000
  43.7080000  80.9790000   4.9780000  43.5520000  81.0980000   3.5870000
  42.7270000  80.4210000   5.8090000  44.9390000  81.4670000   5.5830000
  42.7510000  80.7810000   3.1860000  44.5280000  81.6630000   2.7770000
  41.9140000  80.1040000   5.4360000  42.9070000  80.3200000   7.1960000
  45.9310000  82.0380000   4.7500000  45.1190000  81.3650000   6.9700000
  45.7520000  82.1390000   3.3760000  44.3640000  81.7890000   1.3540000
  41.9150000  79.7480000   8.0280000  44.1370000  80.8070000   7.8010000
  46.7360000  82.3590000   5.1400000  45.9320000  81.6820000   7.3430000
  46.7490000  82.7250000   2.5130000  43.5640000  81.4820000   0.9420000
  45.3430000  82.3400000   0.5920000  42.0930000  79.6470000   9.4030000
  41.1090000  79.4270000   7.6390000  44.2940000  80.6880000   9.1920000
  46.5510000  82.8220000   1.1770000  47.5580000  83.0490000   2.8880000
  45.2220000  82.4050000  -0.3480000  41.0970000  79.0610000  10.2660000
  43.3180000  80.1230000  10.0020000  45.0950000  81.0060000   9.5930000
  47.2190000  83.2140000   0.6280000  41.2950000  78.9640000  11.6020000
  40.2880000  78.7370000   9.8910000  43.4820000  79.9980000  11.4250000
  42.5030000  79.4460000  12.1860000  40.6270000  78.5720000  12.1510000
  44.2820000  80.3040000  11.8360000  42.6240000  79.3820000  13.1270000
  44.6390000  84.0840000  21.8580000  44.7950000  83.9650000  23.2490000
  45.6200000  84.6420000  21.0270000  43.4080000  83.5960000  21.2530000
  45.5970000  84.2830000  23.6500000  43.8190000  83.4000000  24.0590000
  46.4330000  84.9590000  21.3990000  45.4410000  84.7440000  19.6390000
  42.4160000  83.0250000  22.0850000  43.2290000  83.6980000  19.8660000
  42.5950000  82.9240000  23.4600000  43.9830000  83.2740000  25.4810000
  46.4320000  85.3150000  18.8070000  44.2100000  84.2560000  19.0350000
  41.6110000  82.7040000  21.6960000  42.4150000  83.3810000  19.4930000
  41.5990000  82.3380000  24.3230000  44.7830000  83.5810000  25.8930000
  43.0040000  82.7230000  26.2430000  46.2540000  85.4160000  17.4320000
  47.2380000  85.6360000  19.1970000  44.0530000  84.3750000  17.6430000
  41.7970000  82.2410000  25.6590000  40.7890000  82.0140000  23.9480000
  43.1250000  82.6580000  27.1840000  47.2500000  86.0020000  16.5690000
  45.0290000  84.9400000  16.8340000  43.2520000  84.0570000  17.2430000
  41.1280000  81.8490000  26.2080000  47.0520000  86.0990000  15.2340000
  48.0600000  86.3260000  16.9450000  44.8650000  85.0660000  15.4110000
  45.8440000  85.6170000  14.6490000  47.7200000  86.4910000  14.6840000
  44.0660000  84.7590000  14.9990000  45.7230000  85.6820000  13.7090000
  44.7110000  87.5320000  33.0920000  44.5550000  87.6520000  31.7000000
  43.7300000  86.9750000  33.9230000  45.9420000  88.0200000  33.6960000
  43.7530000  87.3340000  31.3000000  45.5300000  88.2170000  30.8900000
  42.9160000  86.6580000  33.5500000  43.9090000  86.8730000  35.3100000
  46.9340000  88.5920000  32.8640000  46.1210000  87.9180000  35.0840000
  46.7550000  88.6930000  31.4890000  45.3670000  88.3420000  29.4680000
  42.9170000  86.3020000  36.1420000  45.1400000  87.3610000  35.9140000
  47.7390000  88.9130000  33.2530000  46.9350000  88.2360000  35.4560000
  47.7510000  89.2790000  30.6260000  44.5670000  88.0360000  29.0560000
  46.3460000  88.8940000  28.7060000  43.0960000  86.2010000  37.5170000
  42.1120000  85.9800000  35.7530000  45.2960000  87.2420000  37.3060000
  47.5530000  89.3760000  29.2910000  48.5610000  89.6030000  31.0020000
  46.2240000  88.9580000  27.7660000  42.1000000  85.6150000  38.3800000
  44.3210000  86.6760000  38.1160000  46.0980000  87.5590000  37.7070000
  48.2210000  89.7680000  28.7410000  42.2980000  85.5170000  39.7150000
  41.2900000  85.2910000  38.0050000  44.4840000  86.5510000  39.5380000
  43.5050000  86.0000000  40.3000000  41.6290000  85.1260000  40.2650000
  45.2840000  86.8580000  39.9500000  43.6260000  85.9350000  41.2410000
  46.1430000  93.9150000  64.0280000  46.2990000  93.7950000  65.4200000
  47.1240000  94.4720000  63.1970000  44.9120000  93.4270000  63.4240000
  47.1000000  94.1130000  65.8200000  45.3230000  93.2300000  66.2290000
  47.9370000  94.7890000  63.5700000  46.9440000  94.5740000  61.8100000
  43.9200000  92.8550000  64.2560000  44.7320000  93.5290000  62.0360000
  44.0980000  92.7540000  65.6300000  45.4870000  93.1050000  67.6520000
  47.9360000  95.1460000  60.9780000  45.7130000  94.0860000  61.2050000
  43.1140000  92.5340000  63.8660000  43.9190000  93.2120000  61.6640000
  43.1020000  92.1680000  66.4940000  46.2870000  93.4110000  68.0640000
  44.5080000  92.5540000  68.4140000  47.7580000  95.2470000  59.6030000
  48.7420000  95.4670000  61.3670000  45.5570000  94.2060000  59.8140000
  43.3000000  92.0710000  67.8290000  42.2930000  91.8440000  66.1180000
  44.6290000  92.4890000  69.3540000  48.7540000  95.8330000  58.7400000
  46.5330000  94.7710000  59.0040000  44.7560000  93.8880000  59.4130000
  42.6320000  91.6790000  68.3790000  48.5560000  95.9300000  57.4040000
  49.5630000  96.1570000  59.1150000  46.3690000  94.8960000  57.5820000
  47.3480000  95.4470000  56.8200000  49.2240000  96.3220000  56.8550000
  45.5690000  94.5900000  57.1700000  47.2270000  95.5120000  55.8790000
  46.2150000  97.3630000  75.2620000  46.0580000  97.4820000  73.8710000
  45.2340000  96.8060000  76.0930000  47.4460000  97.8510000  75.8670000
  45.2570000  97.1650000  73.4700000  47.0340000  98.0480000  73.0610000
  44.4200000  96.4880000  75.7200000  45.4130000  96.7040000  77.4800000
  48.4370000  98.4220000  75.0350000  47.6250000  97.7490000  77.2540000
  48.2590000  98.5240000  73.6600000  46.8700000  98.1730000  71.6380000
  44.4210000  96.1320000  78.3130000  46.6440000  97.1920000  78.0850000
  49.2430000  98.7440000  75.4240000  48.4380000  98.0660000  77.6270000
  49.2550000  99.1090000  72.7970000  46.0710000  97.8670000  71.2270000
  47.8490000  98.7240000  70.8770000  44.6000000  96.0310000  79.6870000
  43.6160000  95.8110000  77.9230000  46.8000000  97.0720000  79.4760000
  49.0570000  99.2070000  71.4610000  50.0650000  99.4330000  73.1720000
  47.7280000  98.7890000  69.9360000  43.6040000  95.4450000  80.5500000
  45.8240000  96.5070000  80.2860000  47.6020000  97.3900000  79.8770000
  49.7250000  99.5980000  70.9120000  43.8020000  95.3480000  81.8860000
  42.7940000  95.1210000  80.1750000  45.9880000  96.3820000  81.7090000
  45.0090000  95.8310000  82.4710000  43.1330000  94.9560000  82.4350000
  46.7880000  96.6880000  82.1210000  45.1300000  95.7660000  83.4110000
  46.7160000 100.6400000  89.3190000  46.5600000 100.7590000  87.9270000
  45.7350000 100.0820000  90.1500000  47.9470000 101.1280000  89.9230000
  45.7580000 100.4420000  87.5270000  47.5350000 101.3240000  87.1180000
  44.9210000  99.7650000  89.7770000  45.9140000  99.9810000  91.5370000
  48.9390000 101.6990000  89.0910000  48.1260000 101.0260000  91.3110000
  48.7600000 101.8000000  87.7170000  47.3720000 101.4500000  85.6950000
  44.9220000  99.4090000  92.3690000  47.1450000 100.4680000  92.1420000
  49.7440000 102.0200000  89.4810000  48.9400000 101.3430000  91.6830000
  49.7560000 102.3860000  86.8530000  46.5720000 101.1430000  85.2830000
  48.3510000 102.0010000  84.9330000  45.1010000  99.3080000  93.7440000
  44.1170000  99.0880000  91.9800000  47.3010000 100.3490000  93.5330000
  49.5580000 102.4830000  85.5180000  50.5660000 102.7100000  87.2290000
  48.2300000 102.0660000  83.9930000  44.1050000  98.7220000  94.6070000
  46.3260000  99.7840000  94.3430000  48.1030000 100.6670000  93.9340000
  50.2270000 102.8750000  84.9680000  44.3030000  98.6250000  95.9430000
  43.2950000  98.3980000  94.2320000  46.4890000  99.6590000  95.7650000
  45.5100000  99.1070000  96.5270000  43.6350000  98.2330000  96.4920000
  47.2890000  99.9650000  96.1770000  45.6320000  99.0430000  97.4680000
  45.2120000  90.8090000  47.1490000  45.0560000  90.9290000  45.7570000
  44.2310000  90.2520000  47.9790000  46.4430000  91.2970000  47.7530000
  44.2540000  90.6110000  45.3560000  46.0320000  91.4940000  44.9470000
  43.4180000  89.9350000  47.6070000  44.4100000  90.1500000  49.3670000
  47.4350000  91.8690000  46.9210000  46.6220000  91.1950000  49.1400000
  47.2560000  91.9700000  45.5460000  45.8680000  91.6190000  43.5250000
  43.4190000  89.5780000  50.1990000  45.6410000  90.6380000  49.9710000
  48.2400000  92.1900000  47.3100000  47.4360000  91.5120000  49.5130000
  48.2520000  92.5560000  44.6830000  45.0680000  91.3130000  43.1130000
  46.8470000  92.1700000  42.7630000  43.5970000  89.4770000  51.5740000
  42.6130000  89.2570000  49.8100000  45.7980000  90.5190000  51.3630000
  48.0540000  92.6530000  43.3480000  49.0620000  92.8800000  45.0580000
  46.7260000  92.2350000  41.8220000  42.6010000  88.8920000  52.4370000
  44.8220000  89.9530000  52.1730000  46.5990000  90.8360000  51.7630000
  48.7230000  93.0450000  42.7980000  42.7990000  88.7940000  53.7720000
  41.7910000  88.5680000  52.0610000  44.9860000  89.8280000  53.5950000
  44.0070000  89.2770000  54.3570000  42.1310000  88.4030000  54.3220000
  45.7850000  90.1340000  54.0070000  44.1280000  89.2120000  55.2970000
   6.4020000  10.5750000  35.9140000   6.5590000  10.4560000  37.3060000
   7.3830000  11.1320000  35.0840000   5.1710000  10.0870000  35.3100000
   7.3600000  10.7730000  37.7070000   5.5830000   9.8900000  38.1160000
   8.1970000  11.4500000  35.4560000   7.2040000  11.2340000  33.6960000
   4.1800000   9.5160000  36.1420000   4.9920000  10.1890000  33.9230000
   4.3580000   9.4150000  37.5170000   5.7470000   9.7650000  39.5380000
   8.1960000  11.8060000  32.8640000   5.9730000  10.7460000  33.0920000
   3.3740000   9.1950000  35.7530000   4.1790000   9.8720000  33.5500000
   3.3620000   8.8290000  38.3800000   6.5460000  10.0720000  39.9500000
   4.7680000   9.2140000  40.3000000   8.0170000  11.9070000  31.4890000
   9.0010000  12.1270000  33.2530000   5.8170000  10.8660000  31.7000000
   3.5600000   8.7320000  39.7150000   2.5520000   8.5050000  38.0050000
   4.8890000   9.1490000  41.2410000   9.0130000  12.4930000  30.6260000
   6.7930000  11.4310000  30.8900000   5.0150000  10.5480000  31.3000000
   2.8920000   8.3400000  40.2650000   8.8150000  12.5900000  29.2910000
   9.8230000  12.8170000  31.0020000   6.6290000  11.5560000  29.4680000
   7.6080000  12.1080000  28.7060000   9.4840000  12.9820000  28.7410000
   5.8290000  11.2500000  29.0560000   7.4870000  12.1720000  27.7660000
  40.7880000  10.5210000  21.6710000  40.9590000   9.8450000  22.8950000
  41.7640000  10.5160000  20.6670000  39.5440000  11.2500000  21.4390000
  41.7600000   9.3570000  23.0470000  39.9860000   9.8720000  23.8850000
  42.5780000  10.0440000  20.7980000  41.5930000  11.1960000  19.4540000
  38.5600000  11.2550000  22.4580000  39.3740000  11.9310000  20.2260000
  38.7550000  10.5960000  23.6580000  40.1580000   9.2120000  25.1380000
  42.5780000  11.1910000  18.4350000  40.3490000  11.9250000  19.2220000
  37.7450000  11.7230000  22.3130000  38.5600000  12.4030000  20.0950000
  37.7710000  10.6130000  24.6960000  40.9600000   8.7310000  25.3040000
  39.2000000   9.2550000  26.0970000  42.3820000  11.8510000  17.2340000
  43.3920000  10.7240000  18.5800000  40.1790000  12.6020000  17.9980000
  37.9820000   9.9690000  25.8680000  36.9560000  11.0820000  24.5590000
  39.3390000   8.8100000  26.9250000  43.3660000  11.8340000  16.1970000
  41.1510000  12.5750000  17.0080000  39.3780000  13.0900000  17.8460000
  37.3160000   9.9930000  26.5440000  43.1550000  12.4770000  15.0250000
  44.1810000  11.3650000  16.3330000  40.9800000  13.2350000  15.7540000
  41.9370000  13.1920000  14.7950000  43.8220000  12.4540000  14.3480000
  40.1770000  13.7160000  15.5880000  41.7990000  13.6370000  13.9670000
  40.8510000  15.2020000  33.2790000  40.6800000  15.8790000  32.0540000
  39.8750000  15.2070000  34.2820000  42.0950000  14.4730000  33.5110000
  39.8790000  16.3660000  31.9030000  41.6530000  15.8520000  31.0650000
  39.0610000  15.6800000  34.1520000  40.0450000  14.5270000  35.4960000
  43.0790000  14.4680000  32.4920000  42.2650000  13.7930000  34.7240000
  42.8830000  15.1270000  31.2910000  41.4810000  16.5120000  29.8110000
  39.0610000  14.5320000  36.5150000  41.2890000  13.7980000  35.7270000
  43.8930000  14.0000000  32.6360000  43.0790000  13.3200000  34.8550000
  43.8680000  15.1110000  30.2540000  40.6780000  16.9930000  29.6450000
  42.4390000  16.4690000  28.8520000  39.2570000  13.8730000  37.7150000
  38.2470000  15.0000000  36.3700000  41.4600000  13.1210000  36.9520000
  43.6560000  15.7540000  29.0810000  44.6820000  14.6420000  30.3900000
  42.3000000  16.9140000  28.0240000  38.2720000  13.8900000  38.7520000
  40.4870000  13.1490000  37.9410000  42.2610000  12.6340000  37.1040000
  44.3230000  15.7310000  28.4050000  38.4840000  13.2460000  39.9250000
  37.4580000  14.3590000  38.6160000  40.6590000  12.4890000  39.1950000
  39.7010000  12.5320000  40.1540000  37.8170000  13.2690000  40.6010000
  41.4620000  12.0080000  39.3610000  39.8400000  12.0870000  40.9820000
  41.8530000  21.7560000  61.3920000  41.6830000  22.4330000  60.1680000
  40.8770000  21.7610000  62.3960000  43.0970000  21.0270000  61.6240000
  40.8810000  22.9200000  60.0160000  42.6550000  22.4050000  59.1780000
  40.0640000  22.2330000  62.2650000  41.0480000  21.0810000  63.6090000
  44.0820000  21.0220000  60.6050000  43.2680000  20.3470000  62.8370000
  43.8860000  21.6810000  59.4050000  42.4830000  23.0650000  57.9250000
  40.0640000  21.0860000  64.6280000  42.2920000  20.3520000  63.8410000
  44.8960000  20.5540000  60.7500000  44.0810000  19.8740000  62.9680000
  44.8700000  21.6640000  58.3670000  41.6810000  23.5460000  57.7590000
  43.4410000  23.0220000  56.9660000  40.2590000  20.4270000  65.8290000
  39.2490000  21.5530000  64.4830000  42.4620000  19.6750000  65.0650000
  44.6590000  22.3080000  57.1950000  45.6850000  21.1950000  58.5040000
  43.3030000  23.4670000  56.1380000  39.2750000  20.4430000  66.8660000
  41.4900000  19.7020000  66.0550000  43.2640000  19.1880000  65.2170000
  45.3250000  22.2840000  56.5190000  39.4860000  19.8000000  68.0380000
  38.4600000  20.9120000  66.7300000  41.6620000  19.0420000  67.3090000
  40.7040000  19.0850000  68.2680000  38.8200000  19.8230000  68.7150000
  42.4640000  18.5610000  67.4750000  40.8420000  18.6400000  69.0960000
  41.3520000  18.4790000  47.3360000  41.1810000  19.1560000  46.1110000
  40.3760000  18.4840000  48.3390000  42.5960000  17.7500000  47.5670000
  40.3800000  19.6430000  45.9590000  42.1540000  19.1290000  45.1220000
  39.5620000  18.9570000  48.2080000  40.5470000  17.8040000  49.5520000
  43.5800000  17.7450000  46.5480000  42.7660000  17.0700000  48.7810000
  43.3850000  18.4040000  45.3480000  41.9820000  19.7880000  43.8680000
  39.5620000  17.8090000  50.5710000  41.7910000  17.0750000  49.7840000
  44.3950000  17.2770000  46.6930000  43.5800000  16.5970000  48.9110000
  44.3690000  18.3870000  44.3110000  41.1800000  20.2700000  43.7020000
  42.9400000  19.7450000  42.9090000  39.7580000  17.1500000  51.7720000
  38.7480000  18.2770000  50.4270000  41.9610000  16.3980000  51.0090000
  44.1580000  19.0310000  43.1380000  45.1840000  17.9190000  44.4470000
  42.8010000  20.1900000  42.0810000  38.7740000  17.1670000  52.8090000
  40.9890000  16.4250000  51.9980000  42.7620000  15.9110000  51.1600000
  44.8240000  19.0080000  42.4620000  38.9850000  16.5230000  53.9820000
  37.9590000  17.6350000  52.6730000  41.1600000  15.7660000  53.2520000
  40.2030000  15.8090000  54.2110000  38.3180000  16.5460000  54.6580000
  41.9630000  15.2840000  53.4180000  40.3410000  15.3630000  55.0390000
  42.3540000  25.0330000  75.4490000  42.1840000  25.7090000  74.2250000
  41.3790000  25.0380000  76.4530000  43.5980000  24.3040000  75.6810000
  41.3830000  26.1970000  74.0730000  43.1560000  25.6820000  73.2350000
  40.5650000  25.5100000  76.3220000  41.5490000  24.3580000  77.6660000
  44.5830000  24.2990000  74.6620000  43.7690000  23.6230000  76.8940000
  44.3870000  24.9580000  73.4620000  42.9850000  26.3420000  71.9810000
  40.5650000  24.3630000  78.6850000  42.7930000  23.6290000  77.8980000
  45.3970000  23.8310000  74.8070000  44.5830000  23.1510000  77.0250000
  45.3710000  24.9410000  72.4240000  42.1820000  26.8230000  71.8150000
  43.9420000  26.2990000  71.0230000  40.7600000  23.7030000  79.8860000
  39.7500000  24.8300000  78.5400000  42.9640000  22.9520000  79.1220000
  45.1600000  25.5850000  71.2520000  46.1860000  24.4720000  72.5610000
  43.8040000  26.7440000  70.1950000  39.7760000  23.7200000  80.9230000
  41.9910000  22.9790000  80.1120000  43.7650000  22.4640000  79.2740000
  45.8270000  25.5610000  70.5760000  39.9870000  23.0770000  82.0950000
  38.9610000  24.1890000  80.7870000  42.1630000  22.3190000  81.3660000
  41.2050000  22.3620000  82.3240000  39.3210000  23.1000000  82.7710000
  42.9660000  21.8380000  81.5320000  41.3440000  21.9170000  83.1520000
  41.5240000  18.2000000  21.6710000  41.6950000  17.5230000  22.8950000
  42.5000000  18.1950000  20.6670000  40.2800000  18.9290000  21.4390000
  42.4960000  17.0360000  23.0470000  40.7220000  17.5500000  23.8850000
  43.3140000  17.7220000  20.7980000  42.3290000  18.8750000  19.4540000
  39.2960000  18.9340000  22.4580000  40.1100000  19.6090000  20.2260000
  39.4910000  18.2750000  23.6580000  40.8940000  16.8900000  25.1380000
  43.3140000  18.8700000  18.4350000  41.0850000  19.6040000  19.2220000
  38.4820000  19.4020000  22.3130000  39.2960000  20.0820000  20.0950000
  38.5070000  18.2910000  24.6960000  41.6970000  16.4090000  25.3040000
  39.9360000  16.9340000  26.0970000  43.1180000  19.5290000  17.2340000
  44.1280000  18.4020000  18.5800000  40.9150000  20.2810000  17.9980000
  38.7180000  17.6480000  25.8680000  37.6930000  18.7600000  24.5590000
  40.0750000  16.4880000  26.9250000  44.1020000  19.5120000  16.1970000
  41.8880000  20.2530000  17.0080000  40.1140000  20.7680000  17.8460000
  38.0520000  17.6710000  26.5440000  43.8910000  20.1560000  15.0250000
  44.9170000  19.0430000  16.3330000  41.7160000  20.9130000  15.7540000
  42.6730000  20.8700000  14.7950000  44.5580000  20.1330000  14.3480000
  40.9130000  21.3940000  15.5880000  42.5350000  21.3150000  13.9670000
  42.0260000  21.4770000  35.7270000  42.1960000  20.8000000  36.9520000
  43.0010000  21.4720000  34.7240000  40.7810000  22.2060000  35.4960000
  42.9970000  20.3120000  37.1040000  41.2230000  20.8270000  37.9410000
  43.8150000  20.9990000  34.8550000  42.8310000  22.1520000  33.5110000
  39.7970000  22.2110000  36.5150000  40.6110000  22.8860000  34.2820000
  39.9930000  21.5510000  37.7150000  41.3950000  20.1670000  39.1950000
  43.8150000  22.1470000  32.4920000  41.5870000  22.8810000  33.2790000
  38.9830000  22.6780000  36.3700000  39.7970000  23.3580000  34.1520000
  39.0090000  21.5680000  38.7520000  42.1980000  19.6860000  39.3610000
  40.4380000  20.2100000  40.1540000  43.6190000  22.8060000  31.2910000
  44.6290000  21.6790000  32.6360000  41.4160000  23.5580000  32.0540000
  39.2200000  20.9250000  39.9250000  38.1940000  22.0370000  38.6160000
  40.5760000  19.7650000  40.9820000  44.6040000  22.7890000  30.2540000
  42.3890000  23.5300000  31.0650000  40.6150000  24.0450000  31.9030000
  38.5530000  20.9480000  40.6010000  44.3930000  23.4330000  29.0810000
  45.4180000  22.3200000  30.3900000  42.2170000  24.1900000  29.8110000
  43.1750000  24.1470000  28.8520000  45.0590000  23.4090000  28.4050000
  41.4140000  24.6710000  29.6450000  43.0360000  24.5920000  28.0240000
  43.5290000  31.3070000  77.8980000  43.7000000  30.6300000  79.1220000
  44.5050000  31.3020000  76.8940000  42.2850000  32.0360000  77.6660000
  44.5010000  30.1430000  79.2740000  42.7270000  30.6580000  80.1120000
  45.3190000  30.8300000  77.0250000  44.3350000  31.9820000  75.6810000
  41.3010000  32.0410000  78.6850000  42.1150000  32.7160000  76.4530000
  41.4970000  31.3820000  79.8860000  42.8990000  29.9980000  81.3660000
  45.3190000  31.9770000  74.6620000  43.0900000  32.7110000  75.4490000
  40.4870000  32.5090000  78.5400000  41.3010000  33.1890000  76.3220000
  40.5120000  31.3990000  80.9230000  43.7020000  29.5170000  81.5320000
  41.9410000  30.0410000  82.3240000  45.1230000  32.6360000  73.4620000
  46.1330000  31.5100000  74.8070000  42.9200000  33.3880000  74.2250000
  40.7240000  30.7550000  82.0950000  39.6980000  31.8680000  80.7870000
  42.0800000  29.5960000  83.1520000  46.1080000  32.6200000  72.4240000
  43.8930000  33.3610000  73.2350000  42.1190000  33.8760000  74.0730000
  40.0570000  30.7790000  82.7710000  45.8960000  33.2630000  71.2520000
  46.9220000  32.1510000  72.5610000  43.7210000  34.0210000  71.9810000
  44.6780000  33.9780000  71.0230000  46.5630000  33.2400000  70.5760000
  42.9180000  34.5020000  71.8150000  44.5400000  34.4230000  70.1950000
  42.5890000  29.4340000  61.3920000  42.4190000  30.1110000  60.1680000
  41.6130000  29.4400000  62.3960000  43.8330000  28.7050000  61.6240000
  41.6180000  30.5990000  60.0160000  43.3910000  30.0840000  59.1780000
  40.8000000  29.9120000  62.2650000  41.7840000  28.7590000  63.6090000
  44.8180000  28.7000000  60.6050000  44.0040000  28.0250000  62.8370000
  44.6220000  29.3600000  59.4050000  43.2200000  30.7440000  57.9250000
  40.8000000  28.7640000  64.6280000  43.0280000  28.0300000  63.8410000
  45.6320000  28.2330000  60.7500000  44.8180000  27.5530000  62.9680000
  45.6060000  29.3430000  58.3670000  42.4170000  31.2250000  57.7590000
  44.1770000  30.7010000  56.9660000  40.9950000  28.1050000  65.8290000
  39.9850000  29.2320000  64.4830000  43.1990000  27.3540000  65.0650000
  45.3950000  29.9860000  57.1950000  46.4210000  28.8740000  58.5040000
  44.0390000  31.1460000  56.1380000  40.0110000  28.1220000  66.8660000
  42.2260000  27.3810000  66.0550000  44.0000000  26.8660000  65.2170000
  46.0620000  29.9630000  56.5190000  40.2220000  27.4780000  68.0380000
  39.1960000  28.5910000  66.7300000  42.3980000  26.7210000  67.3090000
  41.4400000  26.7640000  68.2680000  39.5560000  27.5020000  68.7150000
  43.2000000  26.2400000  67.4750000  41.5790000  26.3190000  69.0960000
  44.0310000  34.5840000  91.9550000  44.2010000  33.9070000  93.1790000
  45.0060000  34.5790000  90.9510000  42.7870000  35.3130000  91.7230000
  45.0020000  33.4200000  93.3310000  43.2280000  33.9340000  94.1690000
  45.8200000  34.1060000  91.0820000  44.8360000  35.2590000  89.7380000
  41.8020000  35.3180000  92.7420000  42.6160000  35.9930000  90.5100000
  41.9980000  34.6590000  93.9420000  43.4000000  33.2750000  95.4230000
  45.8200000  35.2540000  88.7190000  43.5920000  35.9880000  89.5060000
  40.9880000  35.7860000  92.5970000  41.8020000  36.4660000  90.3790000
  41.0140000  34.6760000  94.9800000  44.2030000  32.7930000  95.5880000
  42.4430000  33.3180000  96.3810000  45.6250000  35.9130000  87.5180000
  46.6340000  34.7860000  88.8640000  43.4210000  36.6650000  88.2820000
  41.2250000  34.0320000  96.1520000  40.1990000  35.1450000  94.8430000
  42.5810000  32.8730000  97.2090000  46.6090000  35.8960000  86.4810000
  44.3940000  36.6380000  87.2920000  42.6200000  37.1520000  88.1300000
  40.5580000  34.0550000  96.8280000  46.3980000  36.5400000  85.3090000
  47.4230000  35.4280000  86.6170000  44.2220000  37.2970000  86.0380000
  45.1800000  37.2540000  85.0800000  47.0640000  36.5170000  84.6320000
  43.4190000  37.7790000  85.8720000  45.0410000  37.7000000  84.2520000
   6.9440000  22.8270000  19.0350000   6.7880000  22.9460000  17.6430000
   5.9630000  22.2700000  19.8660000   8.1750000  23.3150000  19.6390000
   5.9860000  22.6290000  17.2430000   7.7640000  23.5120000  16.8340000
   5.1500000  21.9520000  19.4930000   6.1420000  22.1680000  21.2530000
   9.1670000  23.8860000  18.8070000   8.3540000  23.2130000  21.0270000
   8.9880000  23.9870000  17.4320000   7.6000000  23.6370000  15.4110000
   5.1510000  21.5960000  22.0850000   7.3730000  22.6560000  21.8580000
   9.9720000  24.2080000  19.1970000   9.1680000  23.5300000  21.3990000
   9.9840000  24.5730000  16.5690000   6.8000000  23.3300000  14.9990000
   8.5790000  24.1880000  14.6490000   5.3290000  21.4950000  23.4600000
   4.3450000  21.2750000  21.6960000   7.5300000  22.5360000  23.2490000
   9.7860000  24.6710000  15.2340000  10.7940000  24.8970000  16.9450000
   8.4580000  24.2530000  13.7090000   4.3330000  20.9090000  24.3230000
   6.5540000  21.9710000  24.0590000   8.3310000  22.8540000  23.6500000
  10.4550000  25.0620000  14.6840000   4.5310000  20.8120000  25.6590000
   3.5230000  20.5850000  23.9480000   6.7180000  21.8460000  25.4810000
   5.7390000  21.2940000  26.2430000   3.8630000  20.4200000  26.2080000
   7.5170000  22.1520000  25.8930000   5.8600000  21.2300000  27.1840000
   7.8750000  25.9320000  35.9140000   8.0310000  25.8130000  37.3060000
   8.8560000  26.4900000  35.0840000   6.6440000  25.4440000  35.3100000
   8.8320000  26.1310000  37.7070000   7.0550000  25.2480000  38.1160000
   9.6690000  26.8070000  35.4560000   8.6760000  26.5920000  33.6960000
   5.6520000  24.8730000  36.1420000   6.4640000  25.5460000  33.9230000
   5.8300000  24.7720000  37.5170000   7.2190000  25.1220000  39.5380000
   9.6680000  27.1630000  32.8640000   7.4460000  26.1040000  33.0920000
   4.8470000  24.5520000  35.7530000   5.6510000  25.2290000  33.5500000
   4.8340000  24.1860000  38.3800000   8.0190000  25.4290000  39.9500000
   6.2400000  24.5710000  40.3000000   9.4900000  27.2640000  31.4890000
  10.4740000  27.4840000  33.2530000   7.2890000  26.2230000  31.7000000
   5.0320000  24.0890000  39.7150000   4.0250000  23.8620000  38.0050000
   6.3610000  24.5060000  41.2410000  10.4860000  27.8500000  30.6260000
   8.2650000  26.7880000  30.8900000   6.4880000  25.9050000  31.3000000
   4.3640000  23.6970000  40.2650000  10.2880000  27.9470000  29.2910000
  11.2950000  28.1740000  31.0020000   8.1010000  26.9140000  29.4680000
   9.0800000  27.4650000  28.7060000  10.9560000  28.3390000  28.7410000
   7.3010000  26.6070000  29.0560000   8.9590000  27.5300000  27.7660000
   8.3760000  29.2090000  49.9710000   8.5320000  29.0900000  51.3630000
   9.3570000  29.7670000  49.1400000   7.1450000  28.7210000  49.3670000
   9.3340000  29.4070000  51.7630000   7.5560000  28.5250000  52.1730000
  10.1700000  30.0840000  49.5130000   9.1780000  29.8680000  47.7530000
   6.1530000  28.1500000  50.1990000   6.9660000  28.8230000  47.9790000
   6.3320000  28.0490000  51.5740000   7.7200000  28.3990000  53.5950000
  10.1700000  30.4400000  46.9210000   7.9470000  29.3810000  47.1490000
   5.3480000  27.8290000  49.8100000   6.1520000  28.5060000  47.6070000
   5.3360000  27.4630000  52.4370000   8.5200000  28.7060000  54.0070000
   6.7410000  27.8480000  54.3570000   9.9910000  30.5410000  45.5460000
  10.9750000  30.7610000  47.3100000   7.7900000  29.5000000  45.7570000
   5.5340000  27.3660000  53.7720000   4.5260000  27.1390000  52.0610000
   6.8620000  27.7830000  55.2970000  10.9870000  31.1270000  44.6830000
   8.7660000  30.0650000  44.9470000   6.9890000  29.1820000  45.3560000
   4.8650000  26.9740000  54.3220000  10.7890000  31.2240000  43.3480000
  11.7970000  31.4510000  45.0580000   8.6020000  30.1900000  43.5250000
   9.5810000  30.7420000  42.7630000  11.4570000  31.6160000  42.7980000
   7.8030000  29.8840000  43.1130000   9.4600000  30.8060000  41.8220000
   8.8770000  32.4860000  64.0280000   9.0340000  32.3670000  65.4200000
   9.8580000  33.0430000  63.1970000   7.6460000  31.9980000  63.4240000
   9.8350000  32.6840000  65.8200000   8.0580000  31.8010000  66.2290000
  10.6720000  33.3610000  63.5700000   9.6790000  33.1450000  61.8100000
   6.6540000  31.4270000  64.2560000   7.4670000  32.1000000  62.0360000
   6.8330000  31.3250000  65.6300000   8.2210000  31.6760000  67.6520000
  10.6710000  33.7170000  60.9780000   8.4480000  32.6570000  61.2050000
   5.8490000  31.1050000  63.8660000   6.6530000  31.7830000  61.6640000
   5.8370000  30.7400000  66.4940000   9.0210000  31.9820000  68.0640000
   7.2420000  31.1250000  68.4140000  10.4920000  33.8180000  59.6030000
  11.4760000  34.0380000  61.3670000   8.2920000  32.7770000  59.8140000
   6.0350000  30.6420000  67.8290000   5.0270000  30.4160000  66.1180000
   7.3640000  31.0600000  69.3540000  11.4880000  34.4040000  58.7400000
   9.2680000  33.3420000  59.0040000   7.4900000  32.4590000  59.4130000
   5.3670000  30.2510000  68.3790000  11.2900000  34.5010000  57.4040000
  12.2980000  34.7280000  59.1150000   9.1040000  33.4670000  57.5820000
  10.0830000  34.0180000  56.8200000  11.9590000  34.8930000  56.8550000
   8.3040000  33.1610000  57.1700000   9.9620000  34.0830000  55.8790000
   9.3780000  35.7630000  78.0850000   9.5350000  35.6430000  79.4760000
  10.3590000  36.3200000  77.2540000   8.1480000  35.2750000  77.4800000
  10.3360000  35.9610000  79.8770000   8.5590000  35.0780000  80.2860000
  11.1730000  36.6370000  77.6270000  10.1800000  36.4220000  75.8670000
   7.1560000  34.7030000  78.3130000   7.9680000  35.3770000  76.0930000
   7.3340000  34.6020000  79.6870000   8.7230000  34.9530000  81.7090000
  11.1720000  36.9940000  75.0350000   8.9490000  35.9340000  75.2620000
   6.3500000  34.3820000  77.9230000   7.1550000  35.0600000  75.7200000
   6.3380000  34.0160000  80.5500000   9.5220000  35.2590000  82.1210000
   7.7440000  34.4020000  82.4710000  10.9930000  37.0950000  73.6600000
  11.9770000  37.3150000  75.4240000   8.7930000  36.0540000  73.8710000
   6.5360000  33.9190000  81.8860000   5.5280000  33.6920000  80.1750000
   7.8650000  34.3370000  83.4110000  11.9890000  37.6810000  72.7970000
   9.7690000  36.6190000  73.0610000   7.9910000  35.7360000  73.4700000
   5.8680000  33.5270000  82.4350000  11.7910000  37.7780000  71.4610000
  12.7990000  38.0050000  73.1720000   9.6050000  36.7440000  71.6380000
  10.5840000  37.2950000  70.8770000  12.4600000  38.1700000  70.9120000
   8.8050000  36.4380000  71.2270000  10.4630000  37.3600000  69.9360000
   9.4510000  39.2110000  89.3190000   9.2940000  39.3300000  87.9270000
   8.4690000  38.6540000  90.1500000  10.6810000  39.6990000  89.9230000
   8.4930000  39.0130000  87.5270000  10.2700000  39.8960000  87.1180000
   7.6560000  38.3370000  89.7770000   8.6490000  38.5520000  91.5370000
  11.6730000  40.2710000  89.0910000  10.8610000  39.5970000  91.3110000
  11.4950000  40.3720000  87.7170000  10.1060000  40.0210000  85.6950000
   7.6570000  37.9800000  92.3690000   9.8800000  39.0400000  92.1420000
  12.4790000  40.5920000  89.4810000  11.6740000  39.9140000  91.6830000
  12.4910000  40.9570000  86.8530000   9.3060000  39.7150000  85.2830000
  11.0850000  40.5720000  84.9330000   7.8360000  37.8790000  93.7440000
   6.8520000  37.6590000  91.9800000  10.0360000  38.9200000  93.5330000
  12.2930000  41.0550000  85.5180000  13.3000000  41.2810000  87.2290000
  10.9640000  40.6370000  83.9930000   6.8400000  37.2930000  94.6070000
   9.0600000  38.3550000  94.3430000  10.8370000  39.2380000  93.9340000
  12.9610000  41.4460000  84.9680000   7.0380000  37.1960000  95.9430000
   6.0300000  36.9690000  94.2320000   9.2240000  38.2300000  95.7650000
   8.2450000  37.6790000  96.5270000   6.3690000  36.8040000  96.4920000
  10.0240000  38.5360000  96.1770000   8.3660000  37.6140000  97.4680000
  43.8270000  40.3900000  75.4490000  43.6560000  41.0670000  74.2250000
  42.8510000  40.3950000  76.4530000  45.0710000  39.6610000  75.6810000
  42.8550000  41.5540000  74.0730000  44.6290000  41.0390000  73.2350000
  42.0370000  40.8680000  76.3220000  43.0210000  39.7150000  77.6660000
  46.0550000  39.6560000  74.6620000  45.2410000  38.9810000  76.8940000
  45.8590000  40.3150000  73.4620000  44.4570000  41.6990000  71.9810000
  42.0370000  39.7200000  78.6850000  44.2650000  38.9860000  77.8980000
  46.8690000  39.1880000  74.8070000  46.0550000  38.5080000  77.0250000
  46.8440000  40.2980000  72.4240000  43.6540000  42.1800000  71.8150000
  45.4150000  41.6560000  71.0230000  42.2330000  39.0610000  79.8860000
  41.2230000  40.1870000  78.5400000  44.4360000  38.3090000  79.1220000
  46.6320000  40.9420000  71.2520000  47.6580000  39.8290000  72.5610000
  45.2760000  42.1010000  70.1950000  41.2480000  39.0770000  80.9230000
  43.4630000  38.3360000  80.1120000  45.2370000  37.8220000  79.2740000
  47.2990000  40.9190000  70.5760000  41.4600000  38.4340000  82.0950000
  40.4340000  39.5460000  80.7870000  43.6350000  37.6760000  81.3660000
  42.6770000  37.7190000  82.3240000  40.7930000  38.4570000  82.7710000
  44.4380000  37.1950000  81.5320000  42.8160000  37.2740000  83.1520000
  42.7620000  29.1550000  35.7270000  42.9320000  28.4790000  36.9520000
  43.7370000  29.1500000  34.7240000  41.5180000  29.8840000  35.4960000
  43.7330000  27.9910000  37.1040000  41.9600000  28.5060000  37.9410000
  44.5510000  28.6780000  34.8550000  43.5670000  29.8300000  33.5110000
  40.5330000  29.8890000  36.5150000  41.3470000  30.5650000  34.2820000
  40.7290000  29.2300000  37.7150000  42.1310000  27.8460000  39.1950000
  44.5510000  29.8250000  32.4920000  42.3230000  30.5590000  33.2790000
  39.7190000  30.3570000  36.3700000  40.5330000  31.0370000  34.1520000
  39.7450000  29.2470000  38.7520000  42.9340000  27.3650000  39.3610000
  41.1740000  27.8890000  40.1540000  44.3560000  30.4850000  31.2910000
  45.3660000  29.3580000  32.6360000  42.1520000  31.2360000  32.0540000
  39.9560000  28.6030000  39.9250000  38.9300000  29.7160000  38.6160000
  41.3120000  27.4440000  40.9820000  45.3400000  30.4680000  30.2540000
  43.1250000  31.2090000  31.0650000  41.3510000  31.7240000  31.9030000
  39.2890000  28.6270000  40.6010000  45.1290000  31.1110000  29.0810000
  46.1550000  29.9990000  30.3900000  42.9530000  31.8690000  29.8110000
  43.9110000  31.8260000  28.8520000  45.7950000  31.0880000  28.4050000
  42.1500000  32.3500000  29.6450000  43.7720000  32.2710000  28.0240000
   9.6130000  40.1650000  64.0280000   9.7700000  40.0450000  65.4200000
  10.5940000  40.7220000  63.1970000   8.3820000  39.6770000  63.4240000
  10.5710000  40.3630000  65.8200000   8.7940000  39.4800000  66.2290000
  11.4080000  41.0390000  63.5700000  10.4150000  40.8240000  61.8100000
   7.3900000  39.1050000  64.2560000   8.2030000  39.7790000  62.0360000
   7.5690000  39.0040000  65.6300000   8.9580000  39.3550000  67.6520000
  11.4070000  41.3950000  60.9780000   9.1840000  40.3360000  61.2050000
   6.5850000  38.7840000  63.8660000   7.3890000  39.4610000  61.6640000
   6.5730000  38.4180000  66.4940000   9.7570000  39.6610000  68.0640000
   7.9790000  38.8040000  68.4140000  11.2280000  41.4970000  59.6030000
  12.2120000  41.7170000  61.3670000   9.0280000  40.4550000  59.8140000
   6.7710000  38.3210000  67.8290000   5.7630000  38.0940000  66.1180000
   8.1000000  38.7390000  69.3540000  12.2240000  42.0820000  58.7400000
  10.0040000  41.0210000  59.0040000   8.2260000  40.1380000  59.4130000
   6.1030000  37.9290000  68.3790000  12.0260000  42.1800000  57.4040000
  13.0340000  42.4060000  59.1150000   9.8400000  41.1460000  57.5820000
  10.8190000  41.6970000  56.8200000  12.6950000  42.5710000  56.8550000
   9.0400000  40.8400000  57.1700000  10.6980000  41.7620000  55.8790000
   9.6850000  43.6130000  75.2620000   9.5290000  43.7320000  73.8710000
   8.7040000  43.0550000  76.0930000  10.9160000  44.1010000  75.8670000
   8.7280000  43.4150000  73.4700000  10.5050000  44.2970000  73.0610000
   7.8910000  42.7380000  75.7200000   8.8840000  42.9530000  77.4800000
  11.9080000  44.6720000  75.0350000  11.0960000  43.9990000  77.2540000
  11.7290000  44.7730000  73.6600000  10.3410000  44.4230000  71.6380000
   7.8920000  42.3820000  78.3130000  10.1140000  43.4410000  78.0850000
  12.7130000  44.9930000  75.4240000  11.9090000  44.3160000  77.6270000
  12.7250000  45.3590000  72.7970000   9.5410000  44.1160000  71.2270000
  11.3200000  44.9740000  70.8770000   8.0700000  42.2810000  79.6870000
   7.0860000  42.0610000  77.9230000  10.2710000  43.3220000  79.4760000
  12.5280000  45.4560000  71.4610000  13.5350000  45.6830000  73.1720000
  11.1990000  45.0390000  69.9360000   7.0740000  41.6950000  80.5500000
   9.2950000  42.7570000  80.2860000  11.0720000  43.6400000  79.8770000
  13.1960000  45.8480000  70.9120000   7.2720000  41.5980000  81.8860000
   6.2650000  41.3710000  80.1750000   9.4590000  42.6320000  81.7090000
   8.4800000  42.0800000  82.4710000   6.6040000  41.2060000  82.4350000
  10.2590000  42.9380000  82.1210000   8.6010000  42.0160000  83.4110000
  43.0590000  38.2380000  33.2790000  42.8880000  38.9150000  32.0540000
  42.0830000  38.2430000  34.2820000  44.3030000  37.5090000  33.5110000
  42.0870000  39.4020000  31.9030000  43.8610000  38.8870000  31.0650000
  41.2690000  38.7160000  34.1520000  42.2540000  37.5630000  35.4960000
  45.2870000  37.5040000  32.4920000  44.4740000  36.8290000  34.7240000
  45.0920000  38.1630000  31.2910000  43.6890000  39.5470000  29.8110000
  41.2690000  37.5680000  36.5150000  43.4980000  36.8340000  35.7270000
  46.1020000  37.0360000  32.6360000  45.2870000  36.3560000  34.8550000
  46.0760000  38.1460000  30.2540000  42.8870000  40.0290000  29.6450000
  44.6470000  39.5040000  28.8520000  41.4650000  36.9090000  37.7150000
  40.4550000  38.0360000  36.3700000  43.6680000  36.1570000  36.9520000
  45.8650000  38.7900000  29.0810000  46.8910000  37.6770000  30.3900000
  44.5080000  39.9490000  28.0240000  40.4810000  36.9260000  38.7520000
  42.6960000  36.1840000  37.9410000  44.4690000  35.6700000  37.1040000
  46.5310000  38.7670000  28.4050000  40.6920000  36.2820000  39.9250000
  39.6660000  37.3940000  38.6160000  42.8670000  35.5250000  39.1950000
  41.9100000  35.5680000  40.1540000  40.0250000  36.3050000  40.6010000
  43.6700000  35.0430000  39.3610000  42.0480000  35.1220000  40.9820000
  10.3490000  47.8430000  64.0280000  10.5060000  47.7240000  65.4200000
  11.3300000  48.4010000  63.1970000   9.1180000  47.3550000  63.4240000
  11.3070000  48.0410000  65.8200000   9.5300000  47.1590000  66.2290000
  12.1440000  48.7180000  63.5700000  11.1510000  48.5030000  61.8100000
   8.1270000  46.7840000  64.2560000   8.9390000  47.4570000  62.0360000
   8.3050000  46.6830000  65.6300000   9.6940000  47.0330000  67.6520000
  12.1430000  49.0740000  60.9780000   9.9200000  48.0150000  61.2050000
   7.3210000  46.4630000  63.8660000   8.1260000  47.1400000  61.6640000
   7.3090000  46.0970000  66.4940000  10.4930000  47.3400000  68.0640000
   8.7150000  46.4820000  68.4140000  11.9640000  49.1750000  59.6030000
  12.9480000  49.3950000  61.3670000   9.7640000  48.1340000  59.8140000
   7.5070000  46.0000000  67.8290000   6.4990000  45.7730000  66.1180000
   8.8360000  46.4170000  69.3540000  12.9600000  49.7610000  58.7400000
  10.7400000  48.6990000  59.0040000   8.9620000  47.8160000  59.4130000
   6.8390000  45.6080000  68.3790000  12.7620000  49.8580000  57.4040000
  13.7700000  50.0850000  59.1150000  10.5760000  48.8250000  57.5820000
  11.5550000  49.3760000  56.8200000  13.4310000  50.2500000  56.8550000
   9.7760000  48.5180000  57.1700000  11.4340000  49.4400000  55.8790000
  10.8510000  51.1200000  78.0850000  11.0070000  51.0010000  79.4760000
  11.8320000  51.6770000  77.2540000   9.6200000  50.6320000  77.4800000
  11.8080000  51.3180000  79.8770000  10.0310000  50.4350000  80.2860000
  12.6450000  51.9950000  77.6270000  11.6520000  51.7790000  75.8670000
   8.6280000  50.0610000  78.3130000   9.4400000  50.7340000  76.0930000
   8.8070000  49.9590000  79.6870000  10.1950000  50.3100000  81.7090000
  12.6440000  52.3510000  75.0350000  10.4220000  51.2910000  75.2620000
   7.8230000  49.7390000  77.9230000   8.6270000  50.4170000  75.7200000
   7.8110000  49.3740000  80.5500000  10.9950000  50.6170000  82.1210000
   9.2160000  49.7590000  82.4710000  12.4660000  52.4520000  73.6600000
  13.4500000  52.6720000  75.4240000  10.2650000  51.4110000  73.8710000
   8.0080000  49.2760000  81.8860000   7.0010000  49.0500000  80.1750000
   9.3370000  49.6940000  83.4110000  13.4620000  53.0380000  72.7970000
  11.2410000  51.9760000  73.0610000   9.4640000  51.0930000  73.4700000
   7.3400000  48.8850000  82.4350000  13.2640000  53.1350000  71.4610000
  14.2710000  53.3620000  73.1720000  11.0770000  52.1010000  71.6380000
  12.0560000  52.6520000  70.8770000  13.9320000  53.5270000  70.9120000
  10.2770000  51.7950000  71.2270000  11.9350000  52.7170000  69.9360000
  43.7950000  45.9170000  33.2790000  43.6250000  46.5930000  32.0540000
  42.8190000  45.9220000  34.2820000  45.0390000  45.1870000  33.5110000
  42.8230000  47.0810000  31.9030000  44.5970000  46.5660000  31.0650000
  42.0060000  46.3940000  34.1520000  42.9900000  45.2420000  35.4960000
  46.0230000  45.1830000  32.4920000  45.2100000  44.5070000  34.7240000
  45.8280000  45.8420000  31.2910000  44.4250000  47.2260000  29.8110000
  42.0050000  45.2470000  36.5150000  44.2340000  44.5120000  35.7270000
  46.8380000  44.7150000  32.6360000  46.0230000  44.0350000  34.8550000
  46.8120000  45.8250000  30.2540000  43.6230000  47.7070000  29.6450000
  45.3830000  47.1830000  28.8520000  42.2010000  44.5870000  37.7150000
  41.1910000  45.7140000  36.3700000  44.4040000  43.8360000  36.9520000
  46.6010000  46.4680000  29.0810000  47.6270000  45.3560000  30.3900000
  45.2450000  47.6280000  28.0240000  41.2170000  44.6040000  38.7520000
  43.4320000  43.8630000  37.9410000  45.2060000  43.3480000  37.1040000
  47.2670000  46.4450000  28.4050000  41.4280000  43.9610000  39.9250000
  40.4020000  45.0730000  38.6160000  43.6040000  43.2030000  39.1950000
  42.6460000  43.2460000  40.1540000  40.7620000  43.9840000  40.6010000
  44.4060000  42.7220000  39.3610000  42.7840000  42.8010000  40.9820000
  10.6560000  55.6930000  61.2050000  10.5000000  55.8130000  59.8140000
   9.6750000  55.1360000  62.0360000  11.8870000  56.1810000  61.8100000
   9.6990000  55.4950000  59.4130000  11.4760000  56.3780000  59.0040000
   8.8620000  54.8190000  61.6640000   9.8550000  55.0340000  63.4240000
  12.8790000  56.7530000  60.9780000  12.0670000  56.0790000  63.1970000
  12.7000000  56.8540000  59.6030000  11.3120000  56.5030000  57.5820000
   8.8630000  54.4620000  64.2560000  11.0850000  55.5220000  64.0280000
  13.6840000  57.0740000  61.3670000  12.8800000  56.3960000  63.5700000
  13.6960000  57.4400000  58.7400000  10.5120000  56.1970000  57.1700000
  12.2910000  57.0540000  56.8200000   9.0410000  54.3610000  65.6300000
   8.0570000  54.1410000  63.8660000  11.2420000  55.4020000  65.4200000
  13.4980000  57.5370000  57.4040000  14.5060000  57.7640000  59.1150000
  12.1700000  57.1190000  55.8790000   8.0450000  53.7750000  66.4940000
  10.2660000  54.8370000  66.2290000  12.0430000  55.7200000  65.8200000
  14.1670000  57.9290000  56.8550000   8.2430000  53.6780000  67.8290000
   7.2360000  53.4510000  66.1180000  10.4300000  54.7120000  67.6520000
   9.4510000  54.1610000  68.4140000   7.5750000  53.2860000  68.3790000
  11.2300000  55.0180000  68.0640000   9.5720000  54.0960000  69.3540000
  11.1580000  58.9700000  75.2620000  11.0010000  59.0890000  73.8710000
  10.1760000  58.4130000  76.0930000  12.3880000  59.4580000  75.8670000
  10.2000000  58.7720000  73.4700000  11.9770000  59.6550000  73.0610000
   9.3630000  58.0950000  75.7200000  10.3560000  58.3110000  77.4800000
  13.3800000  60.0300000  75.0350000  12.5680000  59.3560000  77.2540000
  13.2020000  60.1310000  73.6600000  11.8130000  59.7800000  71.6380000
   9.3640000  57.7390000  78.3130000  11.5870000  58.7990000  78.0850000
  14.1860000  60.3510000  75.4240000  13.3810000  59.6730000  77.6270000
  14.1980000  60.7160000  72.7970000  11.0140000  59.4740000  71.2270000
  12.7920000  60.3310000  70.8770000   9.5430000  57.6380000  79.6870000
   8.5590000  57.4180000  77.9230000  11.7430000  58.6790000  79.4760000
  14.0000000  60.8140000  71.4610000  15.0080000  61.0400000  73.1720000
  12.6710000  60.3960000  69.9360000   8.5470000  57.0520000  80.5500000
  10.7670000  58.1140000  80.2860000  12.5440000  58.9970000  79.8770000
  14.6680000  61.2050000  70.9120000   8.7450000  56.9550000  81.8860000
   7.7370000  56.7280000  80.1750000  10.9310000  57.9890000  81.7090000
   9.9520000  57.4380000  82.4710000   8.0760000  56.5630000  82.4350000
  11.7310000  58.2950000  82.1210000  10.0730000  57.3730000  83.4110000
  44.0300000  50.3180000  19.2220000  43.8590000  50.9950000  17.9980000
  43.0540000  50.3230000  20.2260000  45.2740000  49.5890000  19.4540000
  43.0580000  51.4830000  17.8460000  44.8320000  50.9680000  17.0080000
  42.2400000  50.7960000  20.0950000  43.2250000  49.6430000  21.4390000
  46.2580000  49.5840000  18.4350000  45.4450000  48.9090000  20.6670000
  46.0630000  50.2440000  17.2340000  44.6600000  51.6280000  15.7540000
  42.2400000  49.6480000  22.4580000  44.4690000  48.9140000  21.6710000
  47.0730000  49.1170000  18.5800000  46.2580000  48.4370000  20.7980000
  47.0470000  50.2270000  16.1970000  43.8580000  52.1090000  15.5880000
  45.6180000  51.5850000  14.7950000  42.4360000  48.9890000  23.6580000
  41.4260000  50.1160000  22.3130000  44.6390000  48.2380000  22.8950000
  46.8360000  50.8700000  15.0250000  47.8620000  49.7580000  16.3330000
  45.4790000  52.0300000  13.9670000  41.4520000  49.0060000  24.6960000
  43.6670000  48.2650000  23.8850000  45.4400000  47.7500000  23.0470000
  47.5020000  50.8470000  14.3480000  41.6630000  48.3620000  25.8680000
  40.6370000  49.4750000  24.5590000  43.8380000  47.6050000  25.1380000
  42.8810000  47.6480000  26.0970000  40.9960000  48.3860000  26.5440000
  44.6410000  47.1240000  25.3040000  43.0190000  47.2030000  26.9250000
  44.9700000  52.1910000  35.7270000  45.1400000  51.5140000  36.9520000
  45.9460000  52.1860000  34.7240000  43.7260000  52.9200000  35.4960000
  45.9420000  51.0270000  37.1040000  44.1680000  51.5420000  37.9410000
  46.7590000  51.7130000  34.8550000  45.7750000  52.8660000  33.5110000
  42.7420000  52.9250000  36.5150000  43.5550000  53.6000000  34.2820000
  42.9370000  52.2660000  37.7150000  44.3400000  50.8820000  39.1950000
  46.7600000  52.8610000  32.4920000  44.5310000  53.5950000  33.2790000
  41.9270000  53.3930000  36.3700000  42.7420000  54.0730000  34.1520000
  41.9530000  52.2830000  38.7520000  45.1420000  50.4010000  39.3610000
  43.3820000  50.9250000  40.1540000  46.5640000  53.5200000  31.2910000
  47.5740000  52.3930000  32.6360000  44.3610000  54.2720000  32.0540000
  42.1640000  51.6390000  39.9250000  41.1380000  52.7520000  38.6160000
  43.5200000  50.4800000  40.9820000  47.5480000  53.5040000  30.2540000
  45.3330000  54.2450000  31.0650000  43.5600000  54.7590000  31.9030000
  41.4980000  51.6620000  40.6010000  47.3370000  54.1470000  29.0810000
  48.3630000  53.0350000  30.3900000  45.1610000  54.9050000  29.8110000
  46.1190000  54.8620000  28.8520000  48.0030000  54.1240000  28.4050000
  44.3590000  55.3860000  29.6450000  45.9810000  55.3070000  28.0240000
  45.2050000  56.5930000  21.6710000  45.3750000  55.9160000  22.8950000
  46.1810000  56.5880000  20.6670000  43.9610000  57.3220000  21.4390000
  46.1770000  55.4290000  23.0470000  44.4030000  55.9430000  23.8850000
  46.9940000  56.1150000  20.7980000  46.0100000  57.2680000  19.4540000
  42.9760000  57.3270000  22.4580000  43.7900000  58.0020000  20.2260000
  43.1720000  56.6680000  23.6580000  44.5750000  55.2830000  25.1380000
  46.9940000  57.2630000  18.4350000  44.7660000  57.9970000  19.2220000
  42.1620000  57.7950000  22.3130000  42.9770000  58.4750000  20.0950000
  42.1880000  56.6840000  24.6960000  45.3770000  54.8020000  25.3040000
  43.6170000  55.3260000  26.0970000  46.7990000  57.9220000  17.2340000
  47.8090000  56.7950000  18.5800000  44.5960000  58.6740000  17.9980000
  42.3990000  56.0410000  25.8680000  41.3730000  57.1530000  24.5590000
  43.7550000  54.8810000  26.9250000  47.7830000  57.9050000  16.1970000
  45.5680000  58.6460000  17.0080000  43.7940000  59.1610000  17.8460000
  41.7330000  56.0640000  26.5440000  47.5720000  58.5490000  15.0250000
  48.5980000  57.4360000  16.3330000  45.3960000  59.3060000  15.7540000
  46.3540000  59.2630000  14.7950000  48.2380000  58.5260000  14.3480000
  44.5940000  59.7870000  15.5880000  46.2160000  59.7080000  13.9670000
  45.7060000  59.8700000  35.7270000  45.8770000  59.1930000  36.9520000
  46.6820000  59.8650000  34.7240000  44.4620000  60.5990000  35.4960000
  46.6780000  58.7050000  37.1040000  44.9040000  59.2200000  37.9410000
  47.4960000  59.3920000  34.8550000  46.5110000  60.5450000  33.5110000
  43.4780000  60.6040000  36.5150000  44.2910000  61.2790000  34.2820000
  43.6730000  59.9440000  37.7150000  45.0760000  58.5600000  39.1950000
  47.4960000  60.5400000  32.4920000  45.2670000  61.2740000  33.2790000
  42.6630000  61.0710000  36.3700000  43.4780000  61.7510000  34.1520000
  42.6890000  59.9610000  38.7520000  45.8780000  58.0790000  39.3610000
  44.1180000  58.6030000  40.1540000  47.3000000  61.1990000  31.2910000
  48.3100000  60.0720000  32.6360000  45.0970000  61.9500000  32.0540000
  42.9000000  59.3180000  39.9250000  41.8740000  60.4300000  38.6160000
  44.2570000  58.1580000  40.9820000  48.2840000  61.1820000  30.2540000
  46.0690000  61.9230000  31.0650000  44.2960000  62.4380000  31.9030000
  42.2340000  59.3410000  40.6010000  48.0730000  61.8260000  29.0810000
  49.0990000  60.7130000  30.3900000  45.8980000  62.5830000  29.8110000
  46.8550000  62.5400000  28.8520000  48.7400000  61.8020000  28.4050000
  45.0950000  63.0640000  29.6450000  46.7170000  62.9850000  28.0240000
  45.7690000  64.5510000  47.3360000  45.5980000  65.2270000  46.1110000
  44.7930000  64.5560000  48.3390000  47.0130000  63.8210000  47.5670000
  44.7970000  65.7150000  45.9590000  46.5710000  65.2000000  45.1220000
  43.9790000  65.0280000  48.2080000  44.9630000  63.8760000  49.5520000
  47.9970000  63.8170000  46.5480000  47.1830000  63.1410000  48.7810000
  47.8010000  64.4760000  45.3480000  46.3990000  65.8600000  43.8680000
  43.9790000  63.8810000  50.5710000  46.2070000  63.1460000  49.7840000
  48.8110000  63.3490000  46.6930000  47.9970000  62.6690000  48.9110000
  48.7860000  64.4590000  44.3110000  45.5960000  66.3410000  43.7020000
  47.3570000  65.8170000  42.9090000  44.1750000  63.2210000  51.7720000
  43.1650000  64.3480000  50.4270000  46.3780000  62.4700000  51.0090000
  48.5740000  65.1020000  43.1380000  49.6000000  63.9900000  44.4470000
  47.2180000  66.2620000  42.0810000  43.1900000  63.2380000  52.8090000
  45.4050000  62.4970000  51.9980000  47.1790000  61.9820000  51.1600000
  49.2410000  65.0790000  42.4620000  43.4020000  62.5950000  53.9820000
  42.3760000  63.7070000  52.6730000  45.5770000  61.8370000  53.2520000
  44.6190000  61.8800000  54.2110000  42.7350000  62.6180000  54.6580000
  46.3800000  61.3560000  53.4180000  44.7580000  61.4350000  55.0390000
  47.2100000  69.7000000  77.8980000  47.3800000  69.0230000  79.1220000
  48.1860000  69.6950000  76.8940000  45.9660000  70.4290000  77.6660000
  48.1820000  68.5360000  79.2740000  46.4080000  69.0510000  80.1120000
  48.9990000  69.2230000  77.0250000  48.0150000  70.3750000  75.6810000
  44.9810000  70.4340000  78.6850000  45.7950000  71.1090000  76.4530000
  45.1770000  69.7750000  79.8860000  46.5800000  68.3910000  81.3660000
  48.9990000  70.3700000  74.6620000  46.7710000  71.1040000  75.4490000
  44.1670000  70.9020000  78.5400000  44.9820000  71.5820000  76.3220000
  44.1930000  69.7920000  80.9230000  47.3820000  67.9100000  81.5320000
  45.6220000  68.4340000  82.3240000  48.8040000  71.0290000  73.4620000
  49.8140000  69.9030000  74.8070000  46.6010000  71.7810000  74.2250000
  44.4040000  69.1480000  82.0950000  43.3780000  70.2610000  80.7870000
  45.7600000  67.9890000  83.1520000  49.7880000  71.0130000  72.4240000
  47.5730000  71.7540000  73.2350000  45.7990000  72.2690000  74.0730000
  43.7380000  69.1720000  82.7710000  49.5770000  71.6560000  71.2520000
  50.6030000  70.5440000  72.5610000  47.4010000  72.4140000  71.9810000
  48.3590000  72.3710000  71.0230000  50.2430000  71.6330000  70.5760000
  46.5990000  72.8950000  71.8150000  48.2210000  72.8160000  70.1950000
  46.0030000  68.9520000  33.2790000  45.8330000  69.6290000  32.0540000
  45.0280000  68.9580000  34.2820000  47.2470000  68.2230000  33.5110000
  45.0320000  70.1170000  31.9030000  46.8060000  69.6020000  31.0650000
  44.2140000  69.4300000  34.1520000  45.1980000  68.2770000  35.4960000
  48.2320000  68.2180000  32.4920000  47.4180000  67.5430000  34.7240000
  48.0360000  68.8780000  31.2910000  46.6340000  70.2620000  29.8110000
  44.2140000  68.2820000  36.5150000  46.4420000  67.5480000  35.7270000
  49.0460000  67.7510000  32.6360000  48.2320000  67.0710000  34.8550000
  49.0200000  68.8610000  30.2540000  45.8310000  70.7430000  29.6450000
  47.5910000  70.2190000  28.8520000  44.4090000  67.6230000  37.7150000
  43.4000000  68.7500000  36.3700000  46.6130000  66.8720000  36.9520000
  48.8090000  69.5040000  29.0810000  49.8350000  68.3920000  30.3900000
  47.4530000  70.6640000  28.0240000  43.4250000  67.6400000  38.7520000
  45.6400000  66.8990000  37.9410000  47.4140000  66.3840000  37.1040000
  49.4760000  69.4810000  28.4050000  43.6360000  66.9960000  39.9250000
  42.6110000  68.1090000  38.6160000  45.8120000  66.2390000  39.1950000
  44.8540000  66.2820000  40.1540000  42.9700000  67.0200000  40.6010000
  46.6150000  65.7580000  39.3610000  44.9930000  65.8370000  40.9820000
  47.9460000  77.3790000  77.8980000  48.1170000  76.7020000  79.1220000
  48.9220000  77.3740000  76.8940000  46.7020000  78.1080000  77.6660000
  48.9180000  76.2150000  79.2740000  47.1440000  76.7290000  80.1120000
  49.7350000  76.9010000  77.0250000  48.7510000  78.0540000  75.6810000
  45.7180000  78.1130000  78.6850000  46.5310000  78.7880000  76.4530000
  45.9130000  77.4540000  79.8860000  47.3160000  76.0690000  81.3660000
  49.7360000  78.0490000  74.6620000  47.5070000  78.7830000  75.4490000
  44.9030000  78.5800000  78.5400000  45.7180000  79.2600000  76.3220000
  44.9290000  77.4700000  80.9230000  48.1180000  75.5880000  81.5320000
  46.3580000  76.1120000  82.3240000  49.5400000  78.7080000  73.4620000
  50.5500000  77.5810000  74.8070000  47.3370000  79.4600000  74.2250000
  45.1400000  76.8270000  82.0950000  44.1140000  77.9390000  80.7870000
  46.4960000  75.6670000  83.1520000  50.5240000  78.6910000  72.4240000
  48.3090000  79.4320000  73.2350000  46.5360000  79.9470000  74.0730000
  44.4740000  76.8500000  82.7710000  50.3130000  79.3350000  71.2520000
  51.3390000  78.2220000  72.5610000  48.1370000  80.0920000  71.9810000
  49.0950000  80.0490000  71.0230000  50.9800000  79.3120000  70.5760000
  47.3350000  80.5730000  71.8150000  48.9570000  80.4940000  70.1950000
  46.6770000  71.9500000  21.6710000  46.8480000  71.2730000  22.8950000
  47.6530000  71.9450000  20.6670000  45.4330000  72.6790000  21.4390000
  47.6490000  70.7860000  23.0470000  45.8750000  71.3010000  23.8850000
  48.4670000  71.4720000  20.7980000  47.4820000  72.6250000  19.4540000
  44.4490000  72.6840000  22.4580000  45.2620000  73.3590000  20.2260000
  44.6440000  72.0250000  23.6580000  46.0470000  70.6410000  25.1380000
  48.4670000  72.6200000  18.4350000  46.2380000  73.3540000  19.2220000
  43.6340000  73.1520000  22.3130000  44.4490000  73.8320000  20.0950000
  43.6600000  72.0420000  24.6960000  46.8490000  70.1590000  25.3040000
  45.0890000  70.6840000  26.0970000  48.2710000  73.2790000  17.2340000
  49.2810000  72.1520000  18.5800000  46.0680000  74.0310000  17.9980000
  43.8710000  71.3980000  25.8680000  42.8450000  72.5110000  24.5590000
  45.2280000  70.2390000  26.9250000  49.2550000  73.2620000  16.1970000
  47.0400000  74.0040000  17.0080000  45.2670000  74.5180000  17.8460000
  43.2050000  71.4210000  26.5440000  49.0440000  73.9060000  15.0250000
  50.0700000  72.7940000  16.3330000  46.8690000  74.6630000  15.7540000
  47.8260000  74.6200000  14.7950000  49.7110000  73.8830000  14.3480000
  46.0660000  75.1450000  15.5880000  47.6880000  75.0660000  13.9670000
  47.1780000  75.2270000  35.7270000  47.3490000  74.5500000  36.9520000
  48.1540000  75.2220000  34.7240000  45.9340000  75.9560000  35.4960000
  48.1500000  74.0630000  37.1040000  46.3760000  74.5770000  37.9410000
  48.9680000  74.7490000  34.8550000  47.9840000  75.9020000  33.5110000
  44.9500000  75.9610000  36.5150000  45.7640000  76.6360000  34.2820000
  45.1460000  75.3020000  37.7150000  46.5480000  73.9170000  39.1950000
  48.9680000  75.8970000  32.4920000  46.7390000  76.6310000  33.2790000
  44.1360000  76.4290000  36.3700000  44.9500000  77.1090000  34.1520000
  44.1610000  75.3190000  38.7520000  47.3510000  73.4360000  39.3610000
  45.5900000  73.9610000  40.1540000  48.7720000  76.5560000  31.2910000
  49.7820000  75.4290000  32.6360000  46.5690000  77.3080000  32.0540000
  44.3730000  74.6750000  39.9250000  43.3470000  75.7870000  38.6160000
  45.7290000  73.5150000  40.9820000  49.7570000  76.5390000  30.2540000
  47.5420000  77.2800000  31.0650000  45.7680000  77.7950000  31.9030000
  43.7060000  74.6980000  40.6010000  49.5450000  77.1830000  29.0810000
  50.5710000  76.0700000  30.3900000  47.3700000  77.9400000  29.8110000
  48.3270000  77.8970000  28.8520000  50.2120000  77.1600000  28.4050000
  46.5670000  78.4210000  29.6450000  48.1890000  78.3420000  28.0240000
  14.5310000  89.5130000  78.0850000  14.6880000  89.3940000  79.4760000
  15.5120000  90.0700000  77.2540000  13.3000000  89.0250000  77.4800000
  15.4890000  89.7110000  79.8770000  13.7120000  88.8280000  80.2860000
  16.3260000  90.3880000  77.6270000  15.3330000  90.1720000  75.8670000
  12.3080000  88.4540000  78.3130000  13.1210000  89.1270000  76.0930000
  12.4870000  88.3520000  79.6870000  13.8750000  88.7030000  81.7090000
  16.3250000  90.7440000  75.0350000  14.1020000  89.6840000  75.2620000
  11.5030000  88.1320000  77.9230000  12.3070000  88.8100000  75.7200000
  11.4910000  87.7670000  80.5500000  14.6750000  89.0090000  82.1210000
  12.8970000  88.1520000  82.4710000  16.1460000  90.8450000  73.6600000
  17.1300000  91.0650000  75.4240000  13.9460000  89.8040000  73.8710000
  11.6890000  87.6690000  81.8860000  10.6810000  87.4430000  80.1750000
  13.0180000  88.0870000  83.4110000  17.1420000  91.4310000  72.7970000
  14.9220000  90.3690000  73.0610000  13.1440000  89.4860000  73.4700000
  11.0210000  87.2780000  82.4350000  16.9440000  91.5280000  71.4610000
  17.9520000  91.7550000  73.1720000  14.7580000  90.4940000  71.6380000
  15.7370000  91.0450000  70.8770000  17.6130000  91.9200000  70.9120000
  13.9580000  90.1880000  71.2270000  15.6160000  91.1100000  69.9360000
  47.4130000  79.6290000  21.6710000  47.5840000  78.9520000  22.8950000
  48.3890000  79.6230000  20.6670000  46.1690000  80.3580000  21.4390000
  48.3850000  78.4640000  23.0470000  46.6110000  78.9790000  23.8850000
  49.2030000  79.1510000  20.7980000  48.2180000  80.3040000  19.4540000
  45.1850000  80.3630000  22.4580000  45.9990000  81.0380000  20.2260000
  45.3800000  79.7030000  23.6580000  46.7830000  78.3190000  25.1380000
  49.2030000  80.2990000  18.4350000  46.9740000  81.0330000  19.2220000
  44.3710000  80.8300000  22.3130000  45.1850000  81.5100000  20.0950000
  44.3960000  79.7200000  24.6960000  47.5860000  77.8380000  25.3040000
  45.8250000  78.3620000  26.0970000  49.0070000  80.9580000  17.2340000
  50.0170000  79.8310000  18.5800000  46.8040000  81.7090000  17.9980000
  44.6070000  79.0770000  25.8680000  43.5820000  80.1890000  24.5590000
  45.9640000  77.9170000  26.9250000  49.9910000  80.9410000  16.1970000
  47.7760000  81.6820000  17.0080000  46.0030000  82.1970000  17.8460000
  43.9410000  79.1000000  26.5440000  49.7800000  81.5850000  15.0250000
  50.8060000  80.4720000  16.3330000  47.6050000  82.3420000  15.7540000
  48.5620000  82.2990000  14.7950000  50.4470000  81.5610000  14.3480000
  46.8020000  82.8230000  15.5880000  48.4240000  82.7440000  13.9670000
  47.4760000  84.3100000  33.2790000  47.3050000  84.9860000  32.0540000
  46.5000000  84.3150000  34.2820000  48.7200000  83.5800000  33.5110000
  46.5040000  85.4740000  31.9030000  48.2780000  84.9590000  31.0650000
  45.6860000  84.7870000  34.1520000  46.6700000  83.6350000  35.4960000
  49.7040000  83.5750000  32.4920000  48.8900000  82.9000000  34.7240000
  49.5080000  84.2350000  31.2910000  48.1060000  85.6190000  29.8110000
  45.6860000  83.6400000  36.5150000  47.9150000  82.9050000  35.7270000
  50.5180000  83.1080000  32.6360000  49.7040000  82.4280000  34.8550000
  50.4930000  84.2180000  30.2540000  47.3030000  86.1000000  29.6450000
  49.0640000  85.5760000  28.8520000  45.8820000  82.9800000  37.7150000
  44.8720000  84.1070000  36.3700000  48.0850000  82.2290000  36.9520000
  50.2810000  84.8610000  29.0810000  51.3070000  83.7490000  30.3900000
  48.9250000  86.0210000  28.0240000  44.8970000  82.9970000  38.7520000
  47.1120000  82.2560000  37.9410000  48.8860000  81.7410000  37.1040000
  50.9480000  84.8380000  28.4050000  45.1090000  82.3540000  39.9250000
  44.0830000  83.4660000  38.6160000  47.2840000  81.5960000  39.1950000
  46.3270000  81.6390000  40.1540000  44.4420000  82.3770000  40.6010000
  48.0870000  81.1150000  39.3610000  46.4650000  81.1940000  40.9820000
  40.2870000   7.2440000   7.6140000  40.4570000   6.5680000   8.8380000
  41.2630000   7.2390000   6.6100000  39.0430000   7.9740000   7.3820000
  41.2590000   6.0800000   8.9900000  39.4850000   6.5950000   9.8280000
  42.0760000   6.7670000   6.7410000  41.0920000   7.9190000   5.3970000
  38.0580000   7.9780000   8.4010000  38.8720000   8.6540000   6.1690000
  38.2540000   7.3190000   9.6010000  39.6570000   5.9350000  11.0820000
  42.0760000   7.9140000   4.3780000  39.8480000   8.6490000   5.1650000
  37.2440000   8.4460000   8.2560000  38.0590000   9.1260000   6.0380000
  37.2700000   7.3360000  10.6390000  40.4590000   5.4540000  11.2470000
  38.6990000   5.9780000  12.0400000  41.8810000   8.5740000   3.1770000
  42.8910000   7.4470000   4.5230000  39.6780000   9.3250000   3.9410000
  37.4810000   6.6930000  11.8110000  36.4550000   7.8050000  10.5020000
  38.8370000   5.5330000  12.8680000  42.8650000   8.5570000   2.1400000
  40.6500000   9.2980000   2.9510000  38.8760000   9.8130000   3.7890000
  36.8150000   6.7160000  12.4870000  42.6540000   9.2000000   0.9680000
  43.6800000   8.0880000   2.2760000  40.4780000   9.9580000   1.6970000
  41.4360000   9.9150000   0.7390000  43.3200000   9.1770000   0.2920000
  39.6760000  10.4390000   1.5310000  41.2980000  10.3600000  -0.0890000
  42.8560000  28.3100000  89.5060000  42.6850000  28.9860000  88.2820000
  41.8800000  28.3150000  90.5100000  44.1000000  27.5800000  89.7380000
  41.8840000  29.4740000  88.1300000  43.6580000  28.9590000  87.2920000
  41.0660000  28.7870000  90.3790000  42.0500000  27.6350000  91.7230000
  45.0840000  27.5750000  88.7190000  44.2700000  26.9000000  90.9510000
  44.8880000  28.2350000  87.5180000  43.4860000  29.6190000  86.0380000
  41.0660000  27.6390000  92.7420000  43.2950000  26.9050000  91.9550000
  45.8980000  27.1080000  88.8640000  45.0840000  26.4280000  91.0820000
  45.8730000  28.2180000  86.4810000  42.6830000  30.1000000  85.8720000
  44.4440000  29.5760000  85.0800000  41.2620000  26.9800000  93.9420000
  40.2520000  28.1070000  92.5970000  43.4650000  26.2290000  93.1790000
  45.6610000  28.8610000  85.3090000  46.6870000  27.7490000  86.6170000
  44.3050000  30.0210000  84.2520000  40.2770000  26.9970000  94.9800000
  42.4920000  26.2560000  94.1690000  44.2660000  25.7410000  93.3310000
  46.3280000  28.8380000  84.6320000  40.4890000  26.3540000  96.1520000
  39.4630000  27.4660000  94.8430000  42.6640000  25.5960000  95.4230000
  41.7070000  25.6390000  96.3810000  39.8220000  26.3770000  96.8280000
  43.4670000  25.1150000  95.5880000  41.8450000  25.1940000  97.2090000
  41.0230000  14.9230000   7.6140000  41.1930000  14.2460000   8.8380000
  41.9990000  14.9180000   6.6100000  39.7790000  15.6520000   7.3820000
  41.9950000  13.7590000   8.9900000  40.2210000  14.2740000   9.8280000
  42.8120000  14.4450000   6.7410000  41.8280000  15.5980000   5.3970000
  38.7950000  15.6570000   8.4010000  39.6080000  16.3320000   6.1690000
  38.9900000  14.9980000   9.6010000  40.3930000  13.6140000  11.0820000
  42.8130000  15.5930000   4.3780000  40.5840000  16.3270000   5.1650000
  37.9800000  16.1250000   8.2560000  38.7950000  16.8050000   6.0380000
  38.0060000  15.0150000  10.6390000  41.1950000  13.1320000  11.2470000
  39.4350000  13.6570000  12.0400000  42.6170000  16.2520000   3.1770000
  43.6270000  15.1250000   4.5230000  40.4140000  17.0040000   3.9410000
  38.2170000  14.3710000  11.8110000  37.1910000  15.4840000  10.5020000
  39.5730000  13.2120000  12.8680000  43.6010000  16.2350000   2.1400000
  41.3860000  16.9770000   2.9510000  39.6130000  17.4910000   3.7890000
  37.5510000  14.3940000  12.4870000  43.3900000  16.8790000   0.9680000
  44.4160000  15.7670000   2.2760000  41.2140000  17.6360000   1.6970000
  42.1720000  17.5930000   0.7390000  44.0560000  16.8560000   0.2920000
  40.4120000  18.1180000   1.5310000  42.0340000  18.0390000  -0.0890000
  42.0880000  26.1580000  47.3360000  41.9170000  26.8340000  46.1110000
  41.1120000  26.1630000  48.3390000  43.3320000  25.4280000  47.5670000
  41.1160000  27.3220000  45.9590000  42.8900000  26.8070000  45.1220000
  40.2990000  26.6350000  48.2080000  41.2830000  25.4830000  49.5520000
  44.3160000  25.4240000  46.5480000  43.5030000  24.7480000  48.7810000
  44.1210000  26.0830000  45.3480000  42.7180000  27.4670000  43.8680000
  40.2980000  25.4880000  50.5710000  42.5270000  24.7540000  49.7840000
  45.1310000  24.9560000  46.6930000  44.3160000  24.2760000  48.9110000
  45.1050000  26.0660000  44.3110000  41.9160000  27.9480000  43.7020000
  43.6760000  27.4240000  42.9090000  40.4940000  24.8280000  51.7720000
  39.4840000  25.9550000  50.4270000  42.6970000  24.0770000  51.0090000
  44.8940000  26.7100000  43.1380000  45.9200000  25.5970000  44.4470000
  43.5380000  27.8690000  42.0810000  39.5100000  24.8450000  52.8090000
  41.7250000  24.1040000  51.9980000  43.4980000  23.5890000  51.1600000
  45.5600000  26.6860000  42.4620000  39.7210000  24.2020000  53.9820000
  38.6950000  25.3140000  52.6730000  41.8970000  23.4440000  53.2520000
  40.9390000  23.4870000  54.2110000  39.0540000  24.2250000  54.6580000
  42.6990000  22.9630000  53.4180000  41.0770000  23.0420000  55.0390000
  41.7590000  22.6020000   7.6140000  41.9300000  21.9250000   8.8380000
  42.7350000  22.5960000   6.6100000  40.5150000  23.3310000   7.3820000
  42.7310000  21.4370000   8.9900000  40.9570000  21.9520000   9.8280000
  43.5490000  22.1240000   6.7410000  42.5640000  23.2770000   5.3970000
  39.5310000  23.3360000   8.4010000  40.3440000  24.0110000   6.1690000
  39.7260000  22.6760000   9.6010000  41.1290000  21.2920000  11.0820000
  43.5490000  23.2720000   4.3780000  41.3200000  24.0060000   5.1650000
  38.7160000  23.8030000   8.2560000  39.5310000  24.4830000   6.0380000
  38.7420000  22.6930000  10.6390000  41.9310000  20.8110000  11.2470000
  40.1710000  21.3350000  12.0400000  43.3530000  23.9310000   3.1770000
  44.3630000  22.8040000   4.5230000  41.1500000  24.6820000   3.9410000
  38.9530000  22.0500000  11.8110000  37.9270000  23.1620000  10.5020000
  40.3100000  20.8900000  12.8680000  44.3370000  23.9140000   2.1400000
  42.1220000  24.6550000   2.9510000  40.3490000  25.1700000   3.7890000
  38.2870000  22.0730000  12.4870000  44.1260000  24.5580000   0.9680000
  45.1520000  23.4450000   2.2760000  41.9510000  25.3150000   1.6970000
  42.9080000  25.2720000   0.7390000  44.7930000  24.5340000   0.2920000
  41.1480000  25.7960000   1.5310000  42.7700000  25.7170000  -0.0890000
  42.2600000  25.8780000  21.6710000  42.4310000  25.2020000  22.8950000
  43.2360000  25.8730000  20.6670000  41.0160000  26.6080000  21.4390000
  43.2320000  24.7140000  23.0470000  41.4580000  25.2290000  23.8850000
  44.0500000  25.4010000  20.7980000  43.0660000  26.5530000  19.4540000
  40.0320000  26.6120000  22.4580000  40.8460000  27.2880000  20.2260000
  40.2280000  25.9530000  23.6580000  41.6300000  24.5690000  25.1380000
  44.0500000  26.5480000  18.4350000  41.8220000  27.2830000  19.2220000
  39.2180000  27.0800000  22.3130000  40.0320000  27.7600000  20.0950000
  39.2430000  25.9700000  24.6960000  42.4330000  24.0880000  25.3040000
  40.6720000  24.6120000  26.0970000  43.8540000  27.2080000  17.2340000
  44.8640000  26.0810000  18.5800000  41.6510000  27.9590000  17.9980000
  39.4550000  25.3270000  25.8680000  38.4290000  26.4390000  24.5590000
  40.8110000  24.1670000  26.9250000  44.8390000  27.1910000  16.1970000
  42.6240000  27.9320000  17.0080000  40.8500000  28.4470000  17.8460000
  38.7880000  25.3500000  26.5440000  44.6270000  27.8340000  15.0250000
  45.6530000  26.7220000  16.3330000  42.4520000  28.5920000  15.7540000
  43.4100000  28.5490000  14.7950000  45.2940000  27.8110000  14.3480000
  41.6490000  29.0730000  15.5880000  43.2710000  28.9940000  13.9670000
  42.8240000  33.8360000  47.3360000  42.6540000  34.5130000  46.1110000
  41.8480000  33.8410000  48.3390000  44.0680000  33.1070000  47.5670000
  41.8520000  35.0000000  45.9590000  43.6260000  34.4860000  45.1220000
  41.0350000  34.3140000  48.2080000  42.0190000  33.1610000  49.5520000
  45.0530000  33.1020000  46.5480000  44.2390000  32.4270000  48.7810000
  44.8570000  33.7610000  45.3480000  43.4540000  35.1460000  43.8680000
  41.0350000  33.1660000  50.5710000  43.2630000  32.4320000  49.7840000
  45.8670000  32.6340000  46.6930000  45.0520000  31.9540000  48.9110000
  45.8410000  33.7450000  44.3110000  42.6520000  35.6270000  43.7020000
  44.4120000  35.1030000  42.9090000  41.2300000  32.5070000  51.7720000
  40.2200000  33.6340000  50.4270000  43.4330000  31.7550000  51.0090000
  45.6300000  34.3880000  43.1380000  46.6560000  33.2760000  44.4470000
  44.2740000  35.5480000  42.0810000  40.2460000  32.5240000  52.8090000
  42.4610000  31.7830000  51.9980000  44.2350000  31.2680000  51.1600000
  46.2960000  34.3650000  42.4620000  40.4570000  31.8800000  53.9820000
  39.4310000  32.9930000  52.6730000  42.6330000  31.1230000  53.2520000
  41.6750000  31.1660000  54.2110000  39.7910000  31.9030000  54.6580000
  43.4350000  30.6420000  53.4180000  41.8130000  30.7210000  55.0390000
  43.3250000  37.1130000  61.3920000  43.1550000  37.7900000  60.1680000
  42.3500000  37.1180000  62.3960000  44.5690000  36.3840000  61.6240000
  42.3540000  38.2770000  60.0160000  44.1270000  37.7630000  59.1780000
  41.5360000  37.5910000  62.2650000  42.5200000  36.4380000  63.6090000
  45.5540000  36.3790000  60.6050000  44.7400000  35.7040000  62.8370000
  45.3580000  37.0380000  59.4050000  43.9560000  38.4220000  57.9250000
  41.5360000  36.4430000  64.6280000  43.7640000  35.7090000  63.8410000
  46.3680000  35.9110000  60.7500000  45.5540000  35.2310000  62.9680000
  46.3420000  37.0210000  58.3670000  43.1530000  38.9040000  57.7590000
  44.9130000  38.3790000  56.9660000  41.7310000  35.7840000  65.8290000
  40.7210000  36.9110000  64.4830000  43.9350000  35.0320000  65.0650000
  46.1310000  37.6650000  57.1950000  47.1570000  36.5530000  58.5040000
  44.7750000  38.8240000  56.1380000  40.7470000  35.8010000  66.8660000
  42.9620000  35.0590000  66.0550000  44.7360000  34.5450000  65.2170000
  46.7980000  37.6420000  56.5190000  40.9580000  35.1570000  68.0380000
  39.9320000  36.2690000  66.7300000  43.1340000  34.4000000  67.3090000
  42.1760000  34.4430000  68.2680000  40.2920000  35.1800000  68.7150000
  43.9370000  33.9180000  67.4750000  42.3150000  33.9980000  69.0960000
  44.3280000  43.6670000  89.5060000  44.1570000  44.3430000  88.2820000
  43.3520000  43.6720000  90.5100000  45.5720000  42.9380000  89.7380000
  43.3560000  44.8310000  88.1300000  45.1300000  44.3160000  87.2920000
  42.5380000  44.1440000  90.3790000  43.5230000  42.9920000  91.7230000
  46.5560000  42.9330000  88.7190000  45.7430000  42.2570000  90.9510000
  46.3610000  43.5920000  87.5180000  44.9580000  44.9760000  86.0380000
  42.5380000  42.9970000  92.7420000  44.7670000  42.2630000  91.9550000
  47.3710000  42.4650000  88.8640000  46.5560000  41.7850000  91.0820000
  47.3450000  43.5750000  86.4810000  44.1560000  45.4570000  85.8720000
  45.9160000  44.9330000  85.0800000  42.7340000  42.3370000  93.9420000
  41.7240000  43.4640000  92.5970000  44.9370000  41.5860000  93.1790000
  47.1340000  44.2190000  85.3090000  48.1600000  43.1060000  86.6170000
  45.7770000  45.3780000  84.2520000  41.7500000  42.3540000  94.9800000
  43.9650000  41.6130000  94.1690000  45.7380000  41.0980000  93.3310000
  47.8000000  44.1950000  84.6320000  41.9610000  41.7110000  96.1520000
  40.9350000  42.8230000  94.8430000  44.1360000  40.9530000  95.4230000
  43.1790000  40.9960000  96.3810000  41.2940000  41.7340000  96.8280000
  44.9390000  40.4720000  95.5880000  43.3170000  40.5510000  97.2090000
   8.6830000  37.0590000  47.1490000   8.5260000  37.1790000  45.7570000
   7.7020000  36.5020000  47.9790000   9.9140000  37.5470000  47.7530000
   7.7250000  36.8610000  45.3560000   9.5020000  37.7440000  44.9470000
   6.8880000  36.1850000  47.6070000   7.8810000  36.4000000  49.3670000
  10.9060000  38.1190000  46.9210000  10.0930000  37.4450000  49.1400000
  10.7270000  38.2200000  45.5460000   9.3390000  37.8690000  43.5250000
   6.8890000  35.8280000  50.1990000   9.1120000  36.8880000  49.9710000
  11.7110000  38.4400000  47.3100000  10.9070000  37.7620000  49.5130000
  11.7230000  38.8060000  44.6830000   8.5390000  37.5630000  43.1130000
  10.3180000  38.4200000  42.7630000   7.0680000  35.7270000  51.5740000
   6.0840000  35.5070000  49.8100000   9.2680000  36.7680000  51.3630000
  11.5250000  38.9030000  43.3480000  12.5330000  39.1300000  45.0580000
  10.1960000  38.4850000  41.8220000   6.0720000  35.1410000  52.4370000
   8.2920000  36.2030000  52.1730000  10.0700000  37.0860000  51.7630000
  12.1930000  39.2950000  42.7980000   6.2700000  35.0440000  53.7720000
   5.2620000  34.8170000  52.0610000   8.4560000  36.0780000  53.5950000
   7.4770000  35.5270000  54.3570000   5.6010000  34.6520000  54.3220000
   9.2560000  36.3840000  54.0070000   7.5980000  35.4620000  55.2970000
  42.9970000  33.5570000  21.6710000  43.1670000  32.8800000  22.8950000
  43.9720000  33.5520000  20.6670000  41.7520000  34.2860000  21.4390000
  43.9680000  32.3930000  23.0470000  42.1940000  32.9080000  23.8850000
  44.7860000  33.0790000  20.7980000  43.8020000  34.2320000  19.4540000
  40.7680000  34.2910000  22.4580000  41.5820000  34.9660000  20.2260000
  40.9640000  33.6320000  23.6580000  42.3660000  32.2480000  25.1380000
  44.7860000  34.2270000  18.4350000  42.5580000  34.9610000  19.2220000
  39.9540000  34.7590000  22.3130000  40.7680000  35.4390000  20.0950000
  39.9800000  33.6490000  24.6960000  43.1690000  31.7670000  25.3040000
  41.4090000  32.2910000  26.0970000  44.5900000  34.8860000  17.2340000
  45.6000000  33.7590000  18.5800000  42.3870000  35.6380000  17.9980000
  40.1910000  33.0050000  25.8680000  39.1650000  34.1180000  24.5590000
  41.5470000  31.8460000  26.9250000  45.5750000  34.8690000  16.1970000
  43.3600000  35.6110000  17.0080000  41.5860000  36.1250000  17.8460000
  39.5240000  33.0280000  26.5440000  45.3630000  35.5130000  15.0250000
  46.3890000  34.4010000  16.3330000  43.1880000  36.2710000  15.7540000
  44.1460000  36.2270000  14.7950000  46.0300000  35.4900000  14.3480000
  42.3850000  36.7520000  15.5880000  44.0070000  36.6730000  13.9670000
  44.5630000  48.0680000  75.4490000  44.3920000  48.7450000  74.2250000
  43.5870000  48.0740000  76.4530000  45.8070000  47.3390000  75.6810000
  43.5910000  49.2330000  74.0730000  45.3650000  48.7180000  73.2350000
  42.7730000  48.5460000  76.3220000  43.7580000  47.3940000  77.6660000
  46.7910000  47.3340000  74.6620000  45.9770000  46.6590000  76.8940000
  46.5960000  47.9940000  73.4620000  45.1930000  49.3780000  71.9810000
  42.7730000  47.3980000  78.6850000  45.0020000  46.6640000  77.8980000
  47.6050000  46.8670000  74.8070000  46.7910000  46.1870000  77.0250000
  47.5800000  47.9770000  72.4240000  44.3900000  49.8590000  71.8150000
  46.1510000  49.3350000  71.0230000  42.9690000  46.7390000  79.8860000
  41.9590000  47.8660000  78.5400000  45.1720000  45.9880000  79.1220000
  47.3690000  48.6200000  71.2520000  48.3940000  47.5080000  72.5610000
  46.0120000  49.7800000  70.1950000  41.9850000  46.7560000  80.9230000
  44.1990000  46.0150000  80.1120000  45.9730000  45.5000000  79.2740000
  48.0350000  48.5970000  70.5760000  42.1960000  46.1120000  82.0950000
  41.1700000  47.2250000  80.7870000  44.3710000  45.3550000  81.3660000
  43.4140000  45.3980000  82.3240000  41.5290000  46.1360000  82.7710000
  45.1740000  44.8740000  81.5320000  43.5520000  44.9530000  83.1520000
  45.0640000  51.3450000  89.5060000  44.8940000  52.0220000  88.2820000
  44.0880000  51.3500000  90.5100000  46.3080000  50.6160000  89.7380000
  44.0920000  52.5100000  88.1300000  45.8660000  51.9950000  87.2920000
  43.2750000  51.8230000  90.3790000  44.2590000  50.6700000  91.7230000
  47.2920000  50.6110000  88.7190000  46.4790000  49.9360000  90.9510000
  47.0970000  51.2710000  87.5180000  45.6940000  52.6550000  86.0380000
  43.2740000  50.6750000  92.7420000  45.5030000  49.9410000  91.9550000
  48.1070000  50.1440000  88.8640000  47.2920000  49.4640000  91.0820000
  48.0810000  51.2540000  86.4810000  44.8920000  53.1360000  85.8720000
  46.6520000  52.6120000  85.0800000  43.4700000  50.0160000  93.9420000
  42.4600000  51.1430000  92.5970000  45.6730000  49.2640000  93.1790000
  47.8700000  51.8970000  85.3090000  48.8960000  50.7850000  86.6170000
  46.5140000  53.0570000  84.2520000  42.4860000  50.0330000  94.9800000
  44.7010000  49.2920000  94.1690000  46.4740000  48.7770000  93.3310000
  48.5360000  51.8740000  84.6320000  42.6970000  49.3890000  96.1520000
  41.6710000  50.5020000  94.8430000  44.8730000  48.6320000  95.4230000
  43.9150000  48.6750000  96.3810000  42.0310000  49.4130000  96.8280000
  45.6750000  48.1510000  95.5880000  44.0530000  48.2300000  97.2090000
  42.4950000  30.2800000   7.6140000  42.6660000  29.6030000   8.8380000
  43.4710000  30.2750000   6.6100000  41.2510000  31.0090000   7.3820000
  43.4670000  29.1160000   8.9900000  41.6930000  29.6310000   9.8280000
  44.2850000  29.8030000   6.7410000  43.3000000  30.9550000   5.3970000
  40.2670000  31.0140000   8.4010000  41.0810000  31.6890000   6.1690000
  40.4620000  30.3550000   9.6010000  41.8650000  28.9710000  11.0820000
  44.2850000  30.9500000   4.3780000  42.0560000  31.6840000   5.1650000
  39.4530000  31.4820000   8.2560000  40.2670000  32.1620000   6.0380000
  39.4780000  30.3720000  10.6390000  42.6680000  28.4900000  11.2470000
  40.9070000  29.0140000  12.0400000  44.0890000  31.6100000   3.1770000
  45.0990000  30.4830000   4.5230000  41.8860000  32.3610000   3.9410000
  39.6890000  29.7280000  11.8110000  38.6640000  30.8410000  10.5020000
  41.0460000  28.5690000  12.8680000  45.0730000  31.5930000   2.1400000
  42.8590000  32.3340000   2.9510000  41.0850000  32.8490000   3.7890000
  39.0230000  29.7520000  12.4870000  44.8620000  32.2360000   0.9680000
  45.8880000  31.1240000   2.2760000  42.6870000  32.9940000   1.6970000
  43.6440000  32.9510000   0.7390000  45.5290000  32.2130000   0.2920000
  41.8840000  33.4750000   1.5310000  43.5060000  33.3960000  -0.0890000
  43.7330000  41.2360000  21.6710000  43.9030000  40.5590000  22.8950000
  44.7080000  41.2300000  20.6670000  42.4890000  41.9650000  21.4390000
  44.7040000  40.0710000  23.0470000  42.9310000  40.5860000  23.8850000
  45.5220000  40.7580000  20.7980000  44.5380000  41.9110000  19.4540000
  41.5040000  41.9700000  22.4580000  42.3180000  42.6450000  20.2260000
  41.7000000  41.3100000  23.6580000  43.1020000  39.9260000  25.1380000
  45.5220000  41.9060000  18.4350000  43.2940000  42.6400000  19.2220000
  40.6900000  42.4370000  22.3130000  41.5040000  43.1170000  20.0950000
  40.7160000  41.3270000  24.6960000  43.9050000  39.4450000  25.3040000
  42.1450000  39.9690000  26.0970000  45.3270000  42.5650000  17.2340000
  46.3370000  41.4380000  18.5800000  43.1230000  43.3160000  17.9980000
  40.9270000  40.6840000  25.8680000  39.9010000  41.7960000  24.5590000
  42.2830000  39.5240000  26.9250000  46.3110000  42.5480000  16.1970000
  44.0960000  43.2890000  17.0080000  42.3220000  43.8040000  17.8460000
  40.2600000  40.7070000  26.5440000  46.1000000  43.1920000  15.0250000
  47.1260000  42.0790000  16.3330000  43.9240000  43.9490000  15.7540000
  44.8820000  43.9060000  14.7950000  46.7660000  43.1680000  14.3480000
  43.1210000  44.4300000  15.5880000  44.7430000  44.3510000  13.9670000
  42.7920000  39.3630000   5.1650000  42.6220000  40.0400000   3.9410000
  41.8170000  39.3680000   6.1690000  44.0370000  38.6340000   5.3970000
  41.8210000  40.5270000   3.7890000  43.5950000  40.0120000   2.9510000
  41.0030000  39.8410000   6.0380000  41.9870000  38.6880000   7.3820000
  45.0210000  38.6290000   4.3780000  44.2070000  37.9540000   6.6100000
  44.8250000  39.2880000   3.1770000  43.4230000  40.6720000   1.6970000
  41.0030000  38.6930000   8.4010000  43.2310000  37.9590000   7.6140000
  45.8350000  38.1610000   4.5230000  45.0210000  37.4810000   6.7410000
  45.8100000  39.2710000   2.1400000  42.6200000  41.1530000   1.5310000
  44.3800000  40.6290000   0.7390000  41.1990000  38.0340000   9.6010000
  40.1890000  39.1610000   8.2560000  43.4020000  37.2820000   8.8380000
  45.5980000  39.9150000   0.9680000  46.6240000  38.8020000   2.2760000
  44.2420000  41.0740000  -0.0890000  40.2140000  38.0500000  10.6390000
  42.4290000  37.3090000   9.8280000  44.2030000  36.7950000   8.9900000
  46.2650000  39.8920000   0.2920000  40.4260000  37.4070000  11.8110000
  39.4000000  38.5190000  10.5020000  42.6010000  36.6490000  11.0820000
  41.6430000  36.6920000  12.0400000  39.7590000  37.4300000  12.4870000
  43.4040000  36.1680000  11.2470000  41.7820000  36.2470000  12.8680000
  45.7380000  54.3430000  77.8980000  45.9080000  53.6660000  79.1220000
  46.7130000  54.3380000  76.8940000  44.4940000  55.0720000  77.6660000
  46.7090000  53.1790000  79.2740000  44.9360000  53.6930000  80.1120000
  47.5270000  53.8650000  77.0250000  46.5430000  55.0180000  75.6810000
  43.5090000  55.0770000  78.6850000  44.3230000  55.7520000  76.4530000
  43.7050000  54.4180000  79.8860000  45.1070000  53.0340000  81.3660000
  47.5270000  55.0130000  74.6620000  45.2990000  55.7470000  75.4490000
  42.6950000  55.5450000  78.5400000  43.5090000  56.2250000  76.3220000
  42.7210000  54.4350000  80.9230000  45.9100000  52.5520000  81.5320000
  44.1500000  53.0770000  82.3240000  47.3320000  55.6720000  73.4620000
  48.3420000  54.5450000  74.8070000  45.1280000  56.4240000  74.2250000
  42.9320000  53.7910000  82.0950000  41.9060000  54.9030000  80.7870000
  44.2880000  52.6320000  83.1520000  48.3160000  55.6550000  72.4240000
  46.1010000  56.3970000  73.2350000  44.3270000  56.9110000  74.0730000
  42.2650000  53.8140000  82.7710000  48.1050000  56.2990000  71.2520000
  49.1310000  55.1870000  72.5610000  45.9290000  57.0560000  71.9810000
  46.8870000  57.0130000  71.0230000  48.7710000  56.2760000  70.5760000
  45.1270000  57.5380000  71.8150000  46.7480000  57.4580000  70.1950000
  46.2390000  57.6200000  91.9550000  46.4090000  56.9430000  93.1790000
  47.2150000  57.6150000  90.9510000  44.9950000  58.3490000  91.7230000
  47.2110000  56.4560000  93.3310000  45.4370000  56.9700000  94.1690000
  48.0280000  57.1420000  91.0820000  47.0440000  58.2950000  89.7380000
  44.0110000  58.3540000  92.7420000  44.8240000  59.0290000  90.5100000
  44.2060000  57.6950000  93.9420000  45.6090000  56.3100000  95.4230000
  48.0290000  58.2900000  88.7190000  45.8000000  59.0240000  89.5060000
  43.1960000  58.8220000  92.5970000  44.0110000  59.5020000  90.3790000
  43.2220000  57.7110000  94.9800000  46.4110000  55.8290000  95.5880000
  44.6510000  56.3530000  96.3810000  47.8330000  58.9490000  87.5180000
  48.8430000  57.8220000  88.8640000  45.6300000  59.7010000  88.2820000
  43.4330000  57.0680000  96.1520000  42.4070000  58.1800000  94.8430000
  44.7890000  55.9080000  97.2090000  48.8170000  58.9320000  86.4810000
  46.6020000  59.6730000  87.2920000  44.8280000  60.1880000  88.1300000
  42.7670000  57.0910000  96.8280000  48.6060000  59.5760000  85.3090000
  49.6320000  58.4630000  86.6170000  46.4300000  60.3330000  86.0380000
  47.3880000  60.2900000  85.0800000  49.2720000  59.5530000  84.6320000
  45.6280000  60.8140000  85.8720000  47.2500000  60.7350000  84.2520000
  45.0320000  56.8720000  47.3360000  44.8620000  57.5490000  46.1110000
  44.0570000  56.8770000  48.3390000  46.2760000  56.1430000  47.5670000
  44.0610000  58.0360000  45.9590000  45.8350000  57.5220000  45.1220000
  43.2430000  57.3500000  48.2080000  44.2270000  56.1970000  49.5520000
  47.2610000  56.1380000  46.5480000  46.4470000  55.4630000  48.7810000
  47.0650000  56.7970000  45.3480000  45.6630000  58.1810000  43.8680000
  43.2430000  56.2020000  50.5710000  45.4710000  55.4680000  49.7840000
  48.0750000  55.6700000  46.6930000  47.2610000  54.9900000  48.9110000
  48.0490000  56.7800000  44.3110000  44.8600000  58.6630000  43.7020000
  46.6200000  58.1380000  42.9090000  43.4380000  55.5430000  51.7720000
  42.4290000  56.6700000  50.4270000  45.6420000  54.7910000  51.0090000
  47.8380000  57.4240000  43.1380000  48.8640000  56.3110000  44.4470000
  46.4820000  58.5830000  42.0810000  42.4540000  55.5600000  52.8090000
  44.6690000  54.8180000  51.9980000  46.4430000  54.3040000  51.1600000
  48.5050000  57.4010000  42.4620000  42.6650000  54.9160000  53.9820000
  41.6400000  56.0280000  52.6730000  44.8410000  54.1590000  53.2520000
  43.8830000  54.2020000  54.2110000  41.9990000  54.9390000  54.6580000
  45.6440000  53.6770000  53.4180000  44.0220000  53.7560000  55.0390000
  43.5290000  47.0420000   5.1650000  43.3580000  47.7180000   3.9410000
  42.5530000  47.0470000   6.1690000  44.7730000  46.3120000   5.3970000
  42.5570000  48.2060000   3.7890000  44.3310000  47.6910000   2.9510000
  41.7390000  47.5190000   6.0380000  42.7230000  46.3670000   7.3820000
  45.7570000  46.3070000   4.3780000  44.9430000  45.6320000   6.6100000
  45.5610000  46.9670000   3.1770000  44.1590000  48.3510000   1.6970000
  41.7390000  46.3710000   8.4010000  43.9680000  45.6370000   7.6140000
  46.5710000  45.8400000   4.5230000  45.7570000  45.1600000   6.7410000
  46.5460000  46.9500000   2.1400000  43.3560000  48.8320000   1.5310000
  45.1170000  48.3080000   0.7390000  41.9350000  45.7120000   9.6010000
  40.9250000  46.8390000   8.2560000  44.1380000  44.9610000   8.8380000
  46.3340000  47.5930000   0.9680000  47.3600000  46.4810000   2.2760000
  44.9780000  48.7530000  -0.0890000  40.9500000  45.7290000  10.6390000
  43.1650000  44.9880000   9.8280000  44.9390000  44.4730000   8.9900000
  47.0010000  47.5700000   0.2920000  41.1620000  45.0860000  11.8110000
  40.1360000  46.1980000  10.5020000  43.3370000  44.3280000  11.0820000
  42.3800000  44.3710000  12.0400000  40.4950000  45.1090000  12.4870000
  44.1400000  43.8470000  11.2470000  42.5180000  43.9260000  12.8680000
  45.5340000  60.1490000  61.3920000  45.3630000  60.8260000  60.1680000
  44.5580000  60.1540000  62.3960000  46.7780000  59.4200000  61.6240000
  44.5620000  61.3130000  60.0160000  46.3360000  60.7980000  59.1780000
  43.7440000  60.6260000  62.2650000  44.7280000  59.4740000  63.6090000
  47.7620000  59.4150000  60.6050000  46.9480000  58.7400000  62.8370000
  47.5660000  60.0740000  59.4050000  46.1640000  61.4580000  57.9250000
  43.7440000  59.4790000  64.6280000  45.9730000  58.7450000  63.8410000
  48.5760000  58.9470000  60.7500000  47.7620000  58.2670000  62.9680000
  48.5510000  60.0570000  58.3670000  45.3610000  61.9390000  57.7590000
  47.1220000  61.4150000  56.9660000  43.9400000  58.8200000  65.8290000
  42.9300000  59.9460000  64.4830000  46.1430000  58.0680000  65.0650000
  48.3400000  60.7010000  57.1950000  49.3650000  59.5880000  58.5040000
  46.9830000  61.8600000  56.1380000  42.9560000  58.8360000  66.8660000
  45.1700000  58.0950000  66.0550000  46.9440000  57.5800000  65.2170000
  49.0060000  60.6770000  56.5190000  43.1670000  58.1930000  68.0380000
  42.1410000  59.3050000  66.7300000  45.3420000  57.4350000  67.3090000
  44.3850000  57.4780000  68.2680000  42.5000000  58.2160000  68.7150000
  46.1450000  56.9540000  67.4750000  44.5230000  57.0330000  69.0960000
  46.4740000  62.0220000  77.8980000  46.6440000  61.3450000  79.1220000
  47.4500000  62.0160000  76.8940000  45.2300000  62.7510000  77.6660000
  47.4450000  60.8570000  79.2740000  45.6720000  61.3720000  80.1120000
  48.2630000  61.5440000  77.0250000  47.2790000  62.6970000  75.6810000
  44.2450000  62.7560000  78.6850000  45.0590000  63.4310000  76.4530000
  44.4410000  62.0960000  79.8860000  45.8440000  60.7120000  81.3660000
  48.2630000  62.6920000  74.6620000  46.0350000  63.4260000  75.4490000
  43.4310000  63.2230000  78.5400000  44.2460000  63.9030000  76.3220000
  43.4570000  62.1130000  80.9230000  46.6460000  60.2310000  81.5320000
  44.8860000  60.7550000  82.3240000  48.0680000  63.3510000  73.4620000
  49.0780000  62.2240000  74.8070000  45.8640000  64.1020000  74.2250000
  43.6680000  61.4700000  82.0950000  42.6420000  62.5820000  80.7870000
  45.0240000  60.3100000  83.1520000  49.0520000  63.3340000  72.4240000
  46.8370000  64.0750000  73.2350000  45.0630000  64.5900000  74.0730000
  43.0010000  61.4930000  82.7710000  48.8410000  63.9780000  71.2520000
  49.8670000  62.8650000  72.5610000  46.6650000  64.7350000  71.9810000
  47.6230000  64.6920000  71.0230000  49.5070000  63.9540000  70.5760000
  45.8630000  65.2160000  71.8150000  47.4850000  65.1370000  70.1950000
  46.5360000  66.7030000  89.5060000  46.3660000  67.3790000  88.2820000
  45.5600000  66.7080000  90.5100000  47.7800000  65.9730000  89.7380000
  45.5650000  67.8670000  88.1300000  47.3380000  67.3520000  87.2920000
  44.7470000  67.1800000  90.3790000  45.7310000  66.0280000  91.7230000
  48.7650000  65.9680000  88.7190000  47.9510000  65.2930000  90.9510000
  48.5690000  66.6280000  87.5180000  47.1670000  68.0120000  86.0380000
  44.7470000  66.0320000  92.7420000  46.9750000  65.2980000  91.9550000
  49.5790000  65.5010000  88.8640000  48.7650000  64.8210000  91.0820000
  49.5530000  66.6110000  86.4810000  46.3640000  68.4930000  85.8720000
  48.1240000  67.9690000  85.0800000  44.9420000  65.3730000  93.9420000
  43.9320000  66.5000000  92.5970000  47.1460000  64.6220000  93.1790000
  49.3420000  67.2540000  85.3090000  50.3680000  66.1420000  86.6170000
  47.9860000  68.4140000  84.2520000  43.9580000  65.3900000  94.9800000
  46.1730000  64.6490000  94.1690000  47.9470000  64.1340000  93.3310000
  50.0090000  67.2310000  84.6320000  44.1690000  64.7470000  96.1520000
  43.1430000  65.8590000  94.8430000  46.3450000  63.9890000  95.4230000
  45.3870000  64.0320000  96.3810000  43.5030000  64.7700000  96.8280000
  47.1470000  63.5080000  95.5880000  45.5260000  63.5870000  97.2090000
  44.7040000  53.3160000   7.6140000  44.8740000  52.6390000   8.8380000
  45.6790000  53.3110000   6.6100000  43.4600000  54.0450000   7.3820000
  45.6750000  52.1520000   8.9900000  43.9020000  52.6660000   9.8280000
  46.4930000  52.8380000   6.7410000  45.5090000  53.9910000   5.3970000
  42.4750000  54.0500000   8.4010000  43.2890000  54.7250000   6.1690000
  42.6710000  53.3910000   9.6010000  44.0730000  52.0070000  11.0820000
  46.4930000  53.9860000   4.3780000  44.2650000  54.7200000   5.1650000
  41.6610000  54.5180000   8.2560000  42.4750000  55.1980000   6.0380000
  41.6870000  53.4080000  10.6390000  44.8760000  51.5250000  11.2470000
  43.1160000  52.0500000  12.0400000  46.2980000  54.6450000   3.1770000
  47.3070000  53.5180000   4.5230000  44.0940000  55.3970000   3.9410000
  41.8980000  52.7640000  11.8110000  40.8720000  53.8770000  10.5020000
  43.2540000  51.6050000  12.8680000  47.2820000  54.6280000   2.1400000
  45.0670000  55.3700000   2.9510000  43.2930000  55.8840000   3.7890000
  41.2310000  52.7870000  12.4870000  47.0710000  55.2720000   0.9680000
  48.0960000  54.1600000   2.2760000  44.8950000  56.0290000   1.6970000
  45.8530000  55.9860000   0.7390000  47.7370000  55.2490000   0.2920000
  44.0920000  56.5110000   1.5310000  45.7140000  56.4320000  -0.0890000
  46.2700000  67.8270000  61.3920000  46.0990000  68.5040000  60.1680000
  45.2940000  67.8330000  62.3960000  47.5140000  67.0980000  61.6240000
  45.2980000  68.9920000  60.0160000  47.0720000  68.4770000  59.1780000
  44.4800000  68.3050000  62.2650000  45.4650000  67.1520000  63.6090000
  48.4980000  67.0930000  60.6050000  47.6840000  66.4180000  62.8370000
  48.3030000  67.7530000  59.4050000  46.9000000  69.1370000  57.9250000
  44.4800000  67.1570000  64.6280000  46.7090000  66.4230000  63.8410000
  49.3130000  66.6260000  60.7500000  48.4980000  65.9460000  62.9680000
  49.2870000  67.7360000  58.3670000  46.0970000  69.6180000  57.7590000
  47.8580000  69.0940000  56.9660000  44.6760000  66.4980000  65.8290000
  43.6660000  67.6250000  64.4830000  46.8790000  65.7470000  65.0650000
  49.0760000  68.3790000  57.1950000  50.1020000  67.2670000  58.5040000
  47.7190000  69.5390000  56.1380000  43.6920000  66.5150000  66.8660000
  45.9070000  65.7740000  66.0550000  47.6800000  65.2590000  65.2170000
  49.7420000  68.3560000  56.5190000  43.9030000  65.8710000  68.0380000
  42.8770000  66.9840000  66.7300000  46.0780000  65.1140000  67.3090000
  45.1210000  65.1570000  68.2680000  43.2360000  65.8950000  68.7150000
  46.8810000  64.6330000  67.4750000  45.2590000  64.7120000  69.0960000
  47.7110000  72.9770000  91.9550000  47.8820000  72.3000000  93.1790000
  48.6870000  72.9720000  90.9510000  46.4670000  73.7060000  91.7230000
  48.6830000  71.8130000  93.3310000  46.9090000  72.3270000  94.1690000
  49.5010000  72.4990000  91.0820000  48.5160000  73.6520000  89.7380000
  45.4830000  73.7110000  92.7420000  46.2970000  74.3860000  90.5100000
  45.6780000  73.0520000  93.9420000  47.0810000  71.6680000  95.4230000
  49.5010000  73.6470000  88.7190000  47.2720000  74.3810000  89.5060000
  44.6680000  74.1790000  92.5970000  45.4830000  74.8590000  90.3790000
  44.6940000  73.0690000  94.9800000  47.8840000  71.1860000  95.5880000
  46.1230000  71.7110000  96.3810000  49.3050000  74.3060000  87.5180000
  50.3150000  73.1790000  88.8640000  47.1020000  75.0580000  88.2820000
  44.9050000  72.4250000  96.1520000  43.8790000  73.5380000  94.8430000
  46.2620000  71.2660000  97.2090000  50.2890000  74.2890000  86.4810000
  48.0740000  75.0310000  87.2920000  46.3010000  75.5450000  88.1300000
  44.2390000  72.4480000  96.8280000  50.0780000  74.9330000  85.3090000
  51.1040000  73.8210000  86.6170000  47.9030000  75.6900000  86.0380000
  48.8600000  75.6470000  85.0800000  50.7450000  74.9100000  84.6320000
  47.1000000  76.1720000  85.8720000  48.7220000  76.0930000  84.2520000
  45.0010000  62.3990000   5.1650000  44.8300000  63.0750000   3.9410000
  44.0250000  62.4040000   6.1690000  46.2450000  61.6700000   5.3970000
  44.0290000  63.5630000   3.7890000  45.8030000  63.0480000   2.9510000
  43.2110000  62.8760000   6.0380000  44.1960000  61.7240000   7.3820000
  47.2290000  61.6650000   4.3780000  46.4160000  60.9890000   6.6100000
  47.0340000  62.3240000   3.1770000  45.6310000  63.7080000   1.6970000
  43.2110000  61.7290000   8.4010000  45.4400000  60.9950000   7.6140000
  48.0440000  61.1970000   4.5230000  47.2290000  60.5170000   6.7410000
  48.0180000  62.3070000   2.1400000  44.8290000  64.1890000   1.5310000
  46.5890000  63.6650000   0.7390000  43.4070000  61.0690000   9.6010000
  42.3970000  62.1960000   8.2560000  45.6100000  60.3180000   8.8380000
  47.8070000  62.9510000   0.9680000  48.8330000  61.8380000   2.2760000
  46.4500000  64.1100000  -0.0890000  42.4230000  61.0860000  10.6390000
  44.6380000  60.3450000   9.8280000  46.4110000  59.8300000   8.9900000
  48.4730000  62.9270000   0.2920000  42.6340000  60.4430000  11.8110000
  41.6080000  61.5550000  10.5020000  44.8090000  59.6850000  11.0820000
  43.8520000  59.7280000  12.0400000  41.9670000  60.4660000  12.4870000
  45.6120000  59.2040000  11.2470000  43.9900000  59.2830000  12.8680000
  46.5050000  72.2290000  47.3360000  46.3340000  72.9060000  46.1110000
  45.5290000  72.2340000  48.3390000  47.7490000  71.5000000  47.5670000
  45.5330000  73.3930000  45.9590000  47.3070000  72.8790000  45.1220000
  44.7150000  72.7070000  48.2080000  45.6990000  71.5540000  49.5520000
  48.7330000  71.4950000  46.5480000  47.9190000  70.8200000  48.7810000
  48.5370000  72.1540000  45.3480000  47.1350000  73.5390000  43.8680000
  44.7150000  71.5590000  50.5710000  46.9440000  70.8250000  49.7840000
  49.5470000  71.0270000  46.6930000  48.7330000  70.3470000  48.9110000
  49.5220000  72.1380000  44.3110000  46.3320000  74.0200000  43.7020000
  48.0930000  73.4960000  42.9090000  44.9110000  70.9000000  51.7720000
  43.9010000  72.0270000  50.4270000  47.1140000  70.1480000  51.0090000
  49.3100000  72.7810000  43.1380000  50.3360000  71.6690000  44.4470000
  47.9540000  73.9410000  42.0810000  43.9260000  70.9170000  52.8090000
  46.1410000  70.1760000  51.9980000  47.9150000  69.6610000  51.1600000
  49.9770000  72.7580000  42.4620000  44.1380000  70.2730000  53.9820000
  43.1120000  71.3860000  52.6730000  46.3130000  69.5160000  53.2520000
  45.3560000  69.5590000  54.2110000  43.4710000  70.2960000  54.6580000
  47.1160000  69.0350000  53.4180000  45.4940000  69.1140000  55.0390000
  47.0060000  75.5060000  61.3920000  46.8350000  76.1830000  60.1680000
  46.0300000  75.5110000  62.3960000  48.2500000  74.7770000  61.6240000
  46.0340000  76.6700000  60.0160000  47.8080000  76.1560000  59.1780000
  45.2160000  75.9840000  62.2650000  46.2010000  74.8310000  63.6090000
  49.2340000  74.7720000  60.6050000  48.4210000  74.0970000  62.8370000
  49.0390000  75.4310000  59.4050000  47.6360000  76.8150000  57.9250000
  45.2160000  74.8360000  64.6280000  47.4450000  74.1020000  63.8410000
  50.0490000  74.3040000  60.7500000  49.2340000  73.6240000  62.9680000
  50.0230000  75.4140000  58.3670000  46.8340000  77.2970000  57.7590000
  48.5940000  76.7720000  56.9660000  45.4120000  74.1770000  65.8290000
  44.4020000  75.3040000  64.4830000  47.6150000  73.4250000  65.0650000
  49.8120000  76.0580000  57.1950000  50.8380000  74.9460000  58.5040000
  48.4550000  77.2170000  56.1380000  44.4280000  74.1940000  66.8660000
  46.6430000  73.4520000  66.0550000  48.4160000  72.9380000  65.2170000
  50.4780000  76.0350000  56.5190000  44.6390000  73.5500000  68.0380000
  43.6130000  74.6620000  66.7300000  46.8140000  72.7930000  67.3090000
  45.8570000  72.8360000  68.2680000  43.9720000  73.5730000  68.7150000
  47.6170000  72.3110000  67.4750000  45.9950000  72.3910000  69.0960000
  48.4470000  80.6560000  91.9550000  48.6180000  79.9790000  93.1790000
  49.4230000  80.6500000  90.9510000  47.2030000  81.3850000  91.7230000
  49.4190000  79.4910000  93.3310000  47.6450000  80.0060000  94.1690000
  50.2370000  80.1780000  91.0820000  49.2530000  81.3310000  89.7380000
  46.2190000  81.3900000  92.7420000  47.0330000  82.0650000  90.5100000
  46.4150000  80.7300000  93.9420000  47.8170000  79.3460000  95.4230000
  50.2370000  81.3260000  88.7190000  48.0080000  82.0600000  89.5060000
  45.4050000  81.8570000  92.5970000  46.2190000  82.5370000  90.3790000
  45.4300000  80.7470000  94.9800000  48.6200000  78.8650000  95.5880000
  46.8590000  79.3890000  96.3810000  50.0410000  81.9850000  87.5180000
  51.0510000  80.8580000  88.8640000  47.8380000  82.7360000  88.2820000
  45.6410000  80.1040000  96.1520000  44.6160000  81.2160000  94.8430000
  46.9980000  78.9440000  97.2090000  51.0250000  81.9680000  86.4810000
  48.8110000  82.7090000  87.2920000  47.0370000  83.2240000  88.1300000
  44.9750000  80.1270000  96.8280000  50.8140000  82.6120000  85.3090000
  51.8400000  81.4990000  86.6170000  48.6390000  83.3690000  86.0380000
  49.5960000  83.3260000  85.0800000  51.4810000  82.5880000  84.6320000
  47.8360000  83.8500000  85.8720000  49.4580000  83.7710000  84.2520000
  45.9410000  64.2710000  21.6710000  46.1110000  63.5950000  22.8950000
  46.9170000  64.2660000  20.6670000  44.6970000  65.0010000  21.4390000
  46.9130000  63.1070000  23.0470000  45.1390000  63.6220000  23.8850000
  47.7300000  63.7940000  20.7980000  46.7460000  64.9460000  19.4540000
  43.7130000  65.0050000  22.4580000  44.5260000  65.6810000  20.2260000
  43.9080000  64.3460000  23.6580000  45.3110000  62.9620000  25.1380000
  47.7310000  64.9410000  18.4350000  45.5020000  65.6760000  19.2220000
  42.8980000  65.4730000  22.3130000  43.7130000  66.1530000  20.0950000
  42.9240000  64.3630000  24.6960000  46.1130000  62.4810000  25.3040000
  44.3530000  63.0050000  26.0970000  47.5350000  65.6010000  17.2340000
  48.5450000  64.4740000  18.5800000  45.3320000  66.3520000  17.9980000
  43.1350000  63.7200000  25.8680000  42.1090000  64.8320000  24.5590000
  44.4910000  62.5600000  26.9250000  48.5190000  65.5840000  16.1970000
  46.3040000  66.3250000  17.0080000  44.5300000  66.8400000  17.8460000
  42.4690000  63.7430000  26.5440000  48.3080000  66.2270000  15.0250000
  49.3340000  65.1150000  16.3330000  46.1320000  66.9850000  15.7540000
  47.0900000  66.9420000  14.7950000  48.9740000  66.2040000  14.3480000
  45.3300000  67.4660000  15.5880000  46.9520000  67.3870000  13.9670000
  45.7370000  70.0770000   5.1650000  45.5670000  70.7540000   3.9410000
  44.7610000  70.0820000   6.1690000  46.9810000  69.3480000   5.3970000
  44.7650000  71.2420000   3.7890000  46.5390000  70.7270000   2.9510000
  43.9480000  70.5550000   6.0380000  44.9320000  69.4020000   7.3820000
  47.9650000  69.3430000   4.3780000  47.1520000  68.6680000   6.6100000
  47.7700000  70.0020000   3.1770000  46.3670000  71.3870000   1.6970000
  43.9470000  69.4070000   8.4010000  46.1760000  68.6730000   7.6140000
  48.7800000  68.8760000   4.5230000  47.9650000  68.1960000   6.7410000
  48.7540000  69.9860000   2.1400000  45.5650000  71.8680000   1.5310000
  47.3250000  71.3440000   0.7390000  44.1430000  68.7480000   9.6010000
  43.1330000  69.8750000   8.2560000  46.3460000  67.9960000   8.8380000
  48.5430000  70.6290000   0.9680000  49.5690000  69.5170000   2.2760000
  47.1870000  71.7890000  -0.0890000  43.1590000  68.7650000  10.6390000
  45.3740000  68.0240000   9.8280000  47.1480000  67.5090000   8.9900000
  49.2090000  70.6060000   0.2920000  43.3700000  68.1210000  11.8110000
  42.3440000  69.2340000  10.5020000  45.5460000  67.3640000  11.0820000
  44.5880000  67.4070000  12.0400000  42.7040000  68.1450000  12.4870000
  46.3480000  66.8830000  11.2470000  44.7260000  66.9620000  12.8680000
  48.1810000  81.7810000  63.8410000  48.3510000  81.1040000  65.0650000
  49.1570000  81.7750000  62.8370000  46.9370000  82.5100000  63.6090000
  49.1530000  80.6160000  65.2170000  47.3790000  81.1310000  66.0550000
  49.9700000  81.3030000  62.9680000  48.9860000  82.4550000  61.6240000
  45.9520000  82.5150000  64.6280000  46.7660000  83.1900000  62.3960000
  46.1480000  81.8550000  65.8290000  47.5510000  80.4710000  67.3090000
  49.9700000  82.4510000  60.6050000  47.7420000  83.1850000  61.3920000
  45.1380000  82.9820000  64.4830000  45.9530000  83.6620000  62.2650000
  45.1640000  81.8720000  66.8660000  48.3530000  79.9900000  67.4750000
  46.5930000  80.5140000  68.2680000  49.7750000  83.1100000  59.4050000
  50.7850000  81.9830000  60.7500000  47.5720000  83.8610000  60.1680000
  45.3750000  81.2290000  68.0380000  44.3490000  82.3410000  66.7300000
  46.7310000  80.0690000  69.0960000  50.7590000  83.0930000  58.3670000
  48.5440000  83.8340000  59.1780000  46.7700000  84.3490000  60.0160000
  44.7090000  81.2520000  68.7150000  50.5480000  83.7370000  57.1950000
  51.5740000  82.6240000  58.5040000  48.3720000  84.4940000  57.9250000
  49.3300000  84.4510000  56.9660000  51.2140000  83.7130000  56.5190000
  47.5700000  84.9750000  57.7590000  49.1920000  84.8960000  56.1380000
  48.2430000  86.4610000  75.4490000  48.0730000  87.1380000  74.2250000
  47.2680000  86.4670000  76.4530000  49.4870000  85.7320000  75.6810000
  47.2720000  87.6260000  74.0730000  49.0450000  87.1110000  73.2350000
  46.4540000  86.9390000  76.3220000  47.4380000  85.7860000  77.6660000
  50.4720000  85.7270000  74.6620000  49.6580000  85.0520000  76.8940000
  50.2760000  86.3870000  73.4620000  48.8740000  87.7710000  71.9810000
  46.4540000  85.7910000  78.6850000  48.6820000  85.0570000  77.8980000
  51.2860000  85.2600000  74.8070000  50.4720000  84.5800000  77.0250000
  51.2600000  86.3700000  72.4240000  48.0710000  88.2520000  71.8150000
  49.8310000  87.7280000  71.0230000  46.6490000  85.1320000  79.8860000
  45.6390000  86.2590000  78.5400000  48.8530000  84.3810000  79.1220000
  51.0490000  87.0130000  71.2520000  52.0750000  85.9010000  72.5610000
  49.6930000  88.1730000  70.1950000  45.6650000  85.1490000  80.9230000
  47.8800000  84.4080000  80.1120000  49.6540000  83.8930000  79.2740000
  51.7160000  86.9900000  70.5760000  45.8760000  84.5050000  82.0950000
  44.8500000  85.6180000  80.7870000  48.0520000  83.7480000  81.3660000
  47.0940000  83.7910000  82.3240000  45.2100000  84.5290000  82.7710000
  48.8540000  83.2670000  81.5320000  47.2330000  83.3460000  83.1520000
  49.1830000  88.3340000  91.9550000  49.3540000  87.6570000  93.1790000
  50.1590000  88.3290000  90.9510000  47.9390000  89.0630000  91.7230000
  50.1550000  87.1700000  93.3310000  48.3810000  87.6850000  94.1690000
  50.9730000  87.8570000  91.0820000  49.9890000  89.0090000  89.7380000
  46.9550000  89.0680000  92.7420000  47.7690000  89.7430000  90.5100000
  47.1510000  88.4090000  93.9420000  48.5530000  87.0250000  95.4230000
  50.9730000  89.0040000  88.7190000  48.7450000  89.7380000  89.5060000
  46.1410000  89.5360000  92.5970000  46.9550000  90.2160000  90.3790000
  46.1660000  88.4260000  94.9800000  49.3560000  86.5440000  95.5880000
  47.5950000  87.0680000  96.3810000  50.7770000  89.6630000  87.5180000
  51.7870000  88.5370000  88.8640000  48.5740000  90.4150000  88.2820000
  46.3780000  87.7820000  96.1520000  45.3520000  88.8950000  94.8430000
  47.7340000  86.6230000  97.2090000  51.7620000  89.6470000  86.4810000
  49.5470000  90.3880000  87.2920000  47.7730000  90.9030000  88.1300000
  45.7110000  87.8060000  96.8280000  51.5500000  90.2900000  85.3090000
  52.5760000  89.1780000  86.6170000  49.3750000  91.0480000  86.0380000
  50.3330000  91.0050000  85.0800000  52.2170000  90.2670000  84.6320000
  48.5720000  91.5290000  85.8720000  50.1940000  91.4500000  84.2520000
  48.4160000  86.1820000  49.7840000  48.5860000  85.5060000  51.0090000
  49.3920000  86.1770000  48.7810000  47.1720000  86.9110000  49.5520000
  49.3870000  85.0180000  51.1600000  47.6140000  85.5330000  51.9980000
  50.2050000  85.7050000  48.9110000  49.2210000  86.8570000  47.5670000
  46.1870000  86.9160000  50.5710000  47.0010000  87.5920000  48.3390000
  46.3830000  86.2570000  51.7720000  47.7850000  84.8730000  53.2520000
  50.2050000  86.8520000  46.5480000  47.9770000  87.5860000  47.3360000
  45.3730000  87.3840000  50.4270000  46.1870000  88.0640000  48.2080000
  45.3990000  86.2740000  52.8090000  48.5880000  84.3920000  53.4180000
  46.8280000  84.9160000  54.2110000  50.0100000  87.5120000  45.3480000
  51.0200000  86.3850000  46.6930000  47.8060000  88.2630000  46.1110000
  45.6100000  85.6300000  53.9820000  44.5840000  86.7430000  52.6730000
  46.9660000  84.4710000  55.0390000  50.9940000  87.4950000  44.3110000
  48.7790000  88.2360000  45.1220000  47.0050000  88.7510000  45.9590000
  44.9430000  85.6540000  54.6580000  50.7830000  88.1380000  43.1380000
  51.8090000  87.0260000  44.4470000  48.6070000  88.8960000  43.8680000
  49.5650000  88.8530000  42.9090000  51.4490000  88.1150000  42.4620000
  47.8050000  89.3770000  43.7020000  49.4260000  89.2980000  42.0810000
  48.4780000  90.8630000  61.3920000  48.3080000  91.5400000  60.1680000
  47.5020000  90.8680000  62.3960000  49.7220000  90.1340000  61.6240000
  47.5070000  92.0270000  60.0160000  49.2800000  91.5130000  59.1780000
  46.6890000  91.3410000  62.2650000  47.6730000  90.1880000  63.6090000
  50.7070000  90.1290000  60.6050000  49.8930000  89.4540000  62.8370000
  50.5110000  90.7880000  59.4050000  49.1080000  92.1730000  57.9250000
  46.6890000  90.1930000  64.6280000  48.9170000  89.4590000  63.8410000
  51.5210000  89.6620000  60.7500000  50.7060000  88.9810000  62.9680000
  51.4950000  90.7720000  58.3670000  48.3060000  92.6540000  57.7590000
  50.0660000  92.1300000  56.9660000  46.8840000  89.5340000  65.8290000
  45.8740000  90.6610000  64.4830000  49.0870000  88.7820000  65.0650000
  51.2840000  91.4150000  57.1950000  52.3100000  90.3030000  58.5040000
  49.9280000  92.5750000  56.1380000  45.9000000  89.5510000  66.8660000
  48.1150000  88.8100000  66.0550000  49.8890000  88.2950000  65.2170000
  51.9500000  91.3920000  56.5190000  46.1110000  88.9070000  68.0380000
  45.0850000  90.0200000  66.7300000  48.2870000  88.1500000  67.3090000
  47.3290000  88.1930000  68.2680000  45.4450000  88.9300000  68.7150000
  49.0890000  87.6690000  67.4750000  47.4670000  87.7480000  69.0960000
  48.9790000  94.1400000  75.4490000  48.8090000  94.8170000  74.2250000
  48.0040000  94.1450000  76.4530000  50.2230000  93.4110000  75.6810000
  48.0080000  95.3040000  74.0730000  49.7820000  94.7900000  73.2350000
  47.1900000  94.6180000  76.3220000  48.1740000  93.4650000  77.6660000
  51.2080000  93.4060000  74.6620000  50.3940000  92.7310000  76.8940000
  51.0120000  94.0650000  73.4620000  49.6100000  95.4490000  71.9810000
  47.1900000  93.4700000  78.6850000  49.4180000  92.7360000  77.8980000
  52.0220000  92.9380000  74.8070000  51.2080000  92.2580000  77.0250000
  51.9960000  94.0480000  72.4240000  48.8070000  95.9310000  71.8150000
  50.5670000  95.4060000  71.0230000  47.3850000  92.8110000  79.8860000
  46.3760000  93.9380000  78.5400000  49.5890000  92.0590000  79.1220000
  51.7850000  94.6920000  71.2520000  52.8110000  93.5800000  72.5610000
  50.4290000  95.8510000  70.1950000  46.4010000  92.8280000  80.9230000
  48.6160000  92.0860000  80.1120000  50.3900000  91.5720000  79.2740000
  52.4520000  94.6690000  70.5760000  46.6120000  92.1840000  82.0950000
  45.5870000  93.2960000  80.7870000  48.7880000  91.4270000  81.3660000
  47.8300000  91.4700000  82.3240000  45.9460000  92.2070000  82.7710000
  49.5910000  90.9450000  81.5320000  47.9690000  91.0250000  83.1520000
  46.4730000  77.7560000   5.1650000  46.3030000  78.4330000   3.9410000
  45.4970000  77.7610000   6.1690000  47.7170000  77.0270000   5.3970000
  45.5010000  78.9200000   3.7890000  47.2750000  78.4050000   2.9510000
  44.6840000  78.2340000   6.0380000  45.6680000  77.0810000   7.3820000
  48.7020000  77.0220000   4.3780000  47.8880000  76.3470000   6.6100000
  48.5060000  77.6810000   3.1770000  47.1030000  79.0650000   1.6970000
  44.6840000  77.0860000   8.4010000  46.9120000  76.3520000   7.6140000
  49.5160000  76.5540000   4.5230000  48.7010000  75.8740000   6.7410000
  49.4900000  77.6640000   2.1400000  46.3010000  79.5460000   1.5310000
  48.0610000  79.0220000   0.7390000  44.8790000  76.4270000   9.6010000
  43.8690000  77.5540000   8.2560000  47.0820000  75.6750000   8.8380000
  49.2790000  78.3080000   0.9680000  50.3050000  77.1950000   2.2760000
  47.9230000  79.4670000  -0.0890000  43.8950000  76.4430000  10.6390000
  46.1100000  75.7020000   9.8280000  47.8840000  75.1880000   8.9900000
  49.9450000  78.2850000   0.2920000  44.1060000  75.8000000  11.8110000
  43.0800000  76.9120000  10.5020000  46.2820000  75.0420000  11.0820000
  45.3240000  75.0850000  12.0400000  43.4400000  75.8230000  12.4870000
  47.0840000  74.5610000  11.2470000  45.4620000  74.6400000  12.8680000
  49.9200000  96.0130000  91.9550000  50.0900000  95.3360000  93.1790000
  50.8950000  96.0080000  90.9510000  48.6750000  96.7420000  91.7230000
  50.8910000  94.8490000  93.3310000  49.1170000  95.3630000  94.1690000
  51.7090000  95.5350000  91.0820000  50.7250000  96.6880000  89.7380000
  47.6910000  96.7470000  92.7420000  48.5050000  97.4220000  90.5100000
  47.8870000  96.0880000  93.9420000  49.2890000  94.7030000  95.4230000
  51.7090000  96.6830000  88.7190000  49.4810000  97.4170000  89.5060000
  46.8770000  97.2140000  92.5970000  47.6910000  97.8950000  90.3790000
  46.9030000  96.1040000  94.9800000  50.0920000  94.2220000  95.5880000
  48.3320000  94.7460000  96.3810000  51.5130000  97.3420000  87.5180000
  52.5230000  96.2150000  88.8640000  49.3100000  98.0940000  88.2820000
  47.1140000  95.4610000  96.1520000  46.0880000  96.5730000  94.8430000
  48.4700000  94.3010000  97.2090000  52.4980000  97.3250000  86.4810000
  50.2830000  98.0660000  87.2920000  48.5090000  98.5810000  88.1300000
  46.4470000  95.4840000  96.8280000  52.2870000  97.9690000  85.3090000
  53.3120000  96.8560000  86.6170000  50.1110000  98.7260000  86.0380000
  51.0690000  98.6830000  85.0800000  52.9530000  97.9460000  84.6320000
  49.3080000  99.2070000  85.8720000  50.9300000  99.1280000  84.2520000
   5.9010000   7.2980000  21.8580000   6.0570000   7.1790000  23.2490000
   6.8820000   7.8560000  21.0270000   4.6700000   6.8100000  21.2530000
   6.8590000   7.4970000  23.6500000   5.0820000   6.6140000  24.0590000
   7.6960000   8.1730000  21.3990000   6.7030000   7.9580000  19.6390000
   3.6780000   6.2390000  22.0850000   4.4910000   6.9120000  19.8660000
   3.8570000   6.1380000  23.4600000   5.2450000   6.4880000  25.4810000
   7.6950000   8.5290000  18.8070000   5.4720000   7.4700000  19.0350000
   2.8730000   5.9180000  21.6960000   3.6770000   6.5950000  19.4930000
   2.8610000   5.5520000  24.3230000   6.0450000   6.7950000  25.8930000
   4.2660000   5.9370000  26.2430000   7.5160000   8.6300000  17.4320000
   8.5000000   8.8500000  19.1970000   5.3160000   7.5890000  17.6430000
   3.0590000   5.4550000  25.6590000   2.0510000   5.2280000  23.9480000
   4.3880000   5.8720000  27.1840000   8.5120000   9.2160000  16.5690000
   6.2920000   8.1540000  16.8340000   4.5140000   7.2710000  17.2430000
   2.3910000   5.0630000  26.2080000   8.3140000   9.3130000  15.2340000
   9.3220000   9.5400000  16.9450000   6.1280000   8.2800000  15.4110000
   7.1070000   8.8310000  14.6490000   8.9830000   9.7050000  14.6840000
   5.3280000   7.9730000  14.9990000   6.9860000   8.8960000  13.7090000
   7.9060000  20.4060000  78.0850000   8.0630000  20.2860000  79.4760000
   8.8870000  20.9630000  77.2540000   6.6750000  19.9180000  77.4800000
   8.8640000  20.6040000  79.8770000   7.0870000  19.7210000  80.2860000
   9.7010000  21.2800000  77.6270000   8.7080000  21.0650000  75.8670000
   5.6830000  19.3460000  78.3130000   6.4960000  20.0200000  76.0930000
   5.8620000  19.2450000  79.6870000   7.2500000  19.5960000  81.7090000
   9.7000000  21.6370000  75.0350000   7.4770000  20.5770000  75.2620000
   4.8780000  19.0250000  77.9230000   5.6820000  19.7020000  75.7200000
   4.8660000  18.6590000  80.5500000   8.0500000  19.9020000  82.1210000
   6.2710000  19.0450000  82.4710000   9.5210000  21.7380000  73.6600000
  10.5050000  21.9580000  75.4240000   7.3210000  20.6960000  73.8710000
   5.0640000  18.5620000  81.8860000   4.0560000  18.3350000  80.1750000
   6.3930000  18.9800000  83.4110000  10.5170000  22.3230000  72.7970000
   8.2970000  21.2620000  73.0610000   6.5190000  20.3790000  73.4700000
   4.3960000  18.1700000  82.4350000  10.3190000  22.4210000  71.4610000
  11.3270000  22.6470000  73.1720000   8.1330000  21.3870000  71.6380000
   9.1120000  21.9380000  70.8770000  10.9880000  22.8120000  70.9120000
   7.3330000  21.0810000  71.2270000   8.9910000  22.0030000  69.9360000
   6.4750000  14.0230000  47.1490000   6.3180000  14.1430000  45.7570000
   5.4930000  13.4660000  47.9790000   7.7050000  14.5110000  47.7530000
   5.5170000  13.8250000  45.3560000   7.2940000  14.7080000  44.9470000
   4.6800000  13.1490000  47.6070000   5.6730000  13.3640000  49.3670000
   8.6970000  15.0830000  46.9210000   7.8850000  14.4090000  49.1400000
   8.5190000  15.1840000  45.5460000   7.1300000  14.8330000  43.5250000
   4.6810000  12.7920000  50.1990000   6.9040000  13.8520000  49.9710000
   9.5030000  15.4040000  47.3100000   8.6980000  14.7270000  49.5130000
   9.5150000  15.7700000  44.6830000   6.3300000  14.5270000  43.1130000
   8.1090000  15.3840000  42.7630000   4.8600000  12.6910000  51.5740000
   3.8760000  12.4710000  49.8100000   7.0600000  13.7330000  51.3630000
   9.3170000  15.8670000  43.3480000  10.3240000  16.0940000  45.0580000
   7.9880000  15.4490000  41.8220000   3.8640000  12.1060000  52.4370000
   6.0840000  13.1670000  52.1730000   7.8610000  14.0500000  51.7630000
   9.9850000  16.2590000  42.7980000   4.0610000  12.0080000  53.7720000
   3.0540000  11.7820000  52.0610000   6.2480000  13.0420000  53.5950000
   5.2690000  12.4910000  54.3570000   3.3930000  11.6170000  54.3220000
   7.0480000  13.3480000  54.0070000   5.3900000  12.4260000  55.2970000
   7.9780000  23.8540000  89.3190000   7.8220000  23.9730000  87.9270000
   6.9970000  23.2970000  90.1500000   9.2090000  24.3420000  89.9230000
   7.0210000  23.6560000  87.5270000   8.7980000  24.5390000  87.1180000
   6.1840000  22.9790000  89.7770000   7.1770000  23.1950000  91.5370000
  10.2010000  24.9130000  89.0910000   9.3890000  24.2400000  91.3110000
  10.0220000  25.0140000  87.7170000   8.6340000  24.6640000  85.6950000
   6.1850000  22.6230000  92.3690000   8.4070000  23.6830000  92.1420000
  11.0060000  25.2340000  89.4810000  10.2020000  24.5570000  91.6830000
  11.0180000  25.6000000  86.8530000   7.8340000  24.3570000  85.2830000
   9.6130000  25.2150000  84.9330000   6.3630000  22.5220000  93.7440000
   5.3790000  22.3020000  91.9800000   8.5640000  23.5630000  93.5330000
  10.8200000  25.6980000  85.5180000  11.8280000  25.9240000  87.2290000
   9.4920000  25.2800000  83.9930000   5.3670000  21.9360000  94.6070000
   7.5880000  22.9980000  94.3430000   9.3650000  23.8810000  93.9340000
  11.4890000  26.0890000  84.9680000   5.5650000  21.8390000  95.9430000
   4.5570000  21.6120000  94.2320000   7.7520000  22.8730000  95.7650000
   6.7730000  22.3210000  96.5270000   4.8970000  21.4470000  96.4920000
   8.5510000  23.1790000  96.1770000   6.8940000  22.2570000  97.4680000
   5.4000000   4.0220000   7.8010000   5.5560000   3.9020000   9.1920000
   6.3810000   4.5790000   6.9700000   4.1690000   3.5340000   7.1960000
   6.3580000   4.2200000   9.5930000   4.5800000   3.3370000  10.0020000
   7.1940000   4.8960000   7.3430000   6.2020000   4.6810000   5.5830000
   3.1770000   2.9620000   8.0280000   3.9900000   3.6360000   5.8090000
   3.3560000   2.8610000   9.4030000   4.7440000   3.2120000  11.4250000
   7.1930000   5.2520000   4.7500000   4.9710000   4.1930000   4.9780000
   2.3720000   2.6410000   7.6390000   3.1760000   3.3180000   5.4360000
   2.3600000   2.2750000  10.2660000   5.5440000   3.5180000  11.8360000
   3.7650000   2.6600000  12.1860000   7.0150000   5.3530000   3.3760000
   7.9990000   5.5730000   5.1400000   4.8140000   4.3120000   3.5870000
   2.5580000   2.1780000  11.6020000   1.5500000   1.9510000   9.8910000
   3.8860000   2.5960000  13.1270000   8.0110000   5.9390000   2.5130000
   5.7900000   4.8780000   2.7770000   4.0130000   3.9950000   3.1860000
   1.8890000   1.7860000  12.1510000   7.8130000   6.0370000   1.1770000
   8.8210000   6.2630000   2.8880000   5.6260000   5.0030000   1.3540000
   6.6050000   5.5540000   0.5920000   8.4810000   6.4280000   0.6280000
   4.8270000   4.6960000   0.9420000   6.4840000   5.6190000  -0.3480000
   7.4050000  17.1290000  64.0280000   7.5610000  17.0090000  65.4200000
   8.3860000  17.6860000  63.1970000   6.1740000  16.6410000  63.4240000
   8.3630000  17.3270000  65.8200000   6.5850000  16.4440000  66.2290000
   9.1990000  18.0030000  63.5700000   8.2070000  17.7880000  61.8100000
   5.1820000  16.0690000  64.2560000   5.9950000  16.7430000  62.0360000
   5.3610000  15.9680000  65.6300000   6.7490000  16.3190000  67.6520000
   9.1990000  18.3600000  60.9780000   6.9760000  17.3000000  61.2050000
   4.3770000  15.7480000  63.8660000   5.1810000  16.4260000  61.6640000
   4.3650000  15.3820000  66.4940000   7.5490000  16.6250000  68.0640000
   5.7700000  15.7680000  68.4140000   9.0200000  18.4610000  59.6030000
  10.0040000  18.6810000  61.3670000   6.8190000  17.4200000  59.8140000
   4.5630000  15.2850000  67.8290000   3.5550000  15.0580000  66.1180000
   5.8910000  15.7030000  69.3540000  10.0160000  19.0470000  58.7400000
   7.7950000  17.9850000  59.0040000   6.0180000  17.1020000  59.4130000
   3.8940000  14.8930000  68.3790000   9.8180000  19.1440000  57.4040000
  10.8260000  19.3710000  59.1150000   7.6310000  18.1100000  57.5820000
   8.6100000  18.6610000  56.8200000  10.4860000  19.5360000  56.8550000
   6.8320000  17.8040000  57.1700000   8.4890000  18.7260000  55.8790000
   6.2080000  15.1480000  19.0350000   6.0520000  15.2680000  17.6430000
   5.2270000  14.5910000  19.8660000   7.4390000  15.6360000  19.6390000
   5.2500000  14.9500000  17.2430000   7.0280000  15.8330000  16.8340000
   4.4130000  14.2740000  19.4930000   5.4060000  14.4890000  21.2530000
   8.4310000  16.2080000  18.8070000   7.6180000  15.5340000  21.0270000
   8.2520000  16.3090000  17.4320000   6.8640000  15.9580000  15.4110000
   4.4140000  13.9170000  22.0850000   6.6370000  14.9770000  21.8580000
   9.2360000  16.5290000  19.1970000   8.4320000  15.8510000  21.3990000
   9.2480000  16.8950000  16.5690000   6.0640000  15.6520000  14.9990000
   7.8430000  16.5090000  14.6490000   4.5930000  13.8160000  23.4600000
   3.6090000  13.5960000  21.6960000   6.7940000  14.8580000  23.2490000
   9.0500000  16.9920000  15.2340000  10.0580000  17.2190000  16.9450000
   7.7220000  16.5740000  13.7090000   3.5970000  13.2300000  24.3230000
   5.8180000  14.2920000  24.0590000   7.5950000  15.1750000  23.6500000
   9.7190000  17.3840000  14.6840000   3.7950000  13.1330000  25.6590000
   2.7870000  12.9060000  23.9480000   5.9810000  14.1670000  25.4810000
   5.0030000  13.6160000  26.2430000   3.1270000  12.7420000  26.2080000
   6.7810000  14.4730000  25.8930000   5.1240000  13.5510000  27.1840000
   7.1380000  18.2540000  35.9140000   7.2950000  18.1340000  37.3060000
   8.1200000  18.8110000  35.0840000   5.9080000  17.7660000  35.3100000
   8.0960000  18.4520000  37.7070000   6.3190000  17.5690000  38.1160000
   8.9330000  19.1280000  35.4560000   7.9400000  18.9130000  33.6960000
   4.9160000  17.1940000  36.1420000   5.7280000  17.8680000  33.9230000
   5.0940000  17.0930000  37.5170000   6.4830000  17.4440000  39.5380000
   8.9320000  19.4850000  32.8640000   6.7090000  18.4250000  33.0920000
   4.1100000  16.8730000  35.7530000   4.9150000  17.5510000  33.5500000
   4.0980000  16.5070000  38.3800000   7.2830000  17.7500000  39.9500000
   5.5040000  16.8930000  40.3000000   8.7530000  19.5860000  31.4890000
   9.7370000  19.8060000  33.2530000   6.5530000  18.5450000  31.7000000
   4.2960000  16.4100000  39.7150000   3.2890000  16.1830000  38.0050000
   5.6250000  16.8280000  41.2410000   9.7490000  20.1720000  30.6260000
   7.5290000  19.1100000  30.8900000   5.7520000  18.2270000  31.3000000
   3.6280000  16.0180000  40.2650000   9.5510000  20.2690000  29.2910000
  10.5590000  20.4960000  31.0020000   7.3650000  19.2350000  29.4680000
   8.3440000  19.7860000  28.7060000  10.2200000  20.6600000  28.7410000
   6.5650000  18.9290000  29.0560000   8.2230000  19.8510000  27.7660000
   8.1410000  24.8070000  64.0280000   8.2970000  24.6880000  65.4200000
   9.1220000  25.3650000  63.1970000   6.9100000  24.3190000  63.4240000
   9.0990000  25.0060000  65.8200000   7.3210000  24.1230000  66.2290000
   9.9360000  25.6820000  63.5700000   8.9430000  25.4670000  61.8100000
   5.9180000  23.7480000  64.2560000   6.7310000  24.4210000  62.0360000
   6.0970000  23.6470000  65.6300000   7.4850000  23.9970000  67.6520000
   9.9350000  26.0380000  60.9780000   7.7120000  24.9790000  61.2050000
   5.1130000  23.4270000  63.8660000   5.9170000  24.1040000  61.6640000
   5.1010000  23.0610000  66.4940000   8.2850000  24.3040000  68.0640000
   6.5060000  23.4460000  68.4140000   9.7560000  26.1390000  59.6030000
  10.7400000  26.3590000  61.3670000   7.5550000  25.0980000  59.8140000
   5.2990000  22.9640000  67.8290000   4.2910000  22.7370000  66.1180000
   6.6270000  23.3810000  69.3540000  10.7520000  26.7250000  58.7400000
   8.5310000  25.6630000  59.0040000   6.7540000  24.7810000  59.4130000
   4.6300000  22.5720000  68.3790000  10.5540000  26.8220000  57.4040000
  11.5620000  27.0490000  59.1150000   8.3680000  25.7890000  57.5820000
   9.3470000  26.3400000  56.8200000  11.2220000  27.2140000  56.8550000
   7.5680000  25.4820000  57.1700000   9.2250000  26.4050000  55.8790000
   8.6420000  28.0840000  78.0850000   8.7990000  27.9650000  79.4760000
   9.6230000  28.6420000  77.2540000   7.4110000  27.5960000  77.4800000
   9.6000000  28.2820000  79.8770000   7.8230000  27.4000000  80.2860000
  10.4370000  28.9590000  77.6270000   9.4440000  28.7440000  75.8670000
   6.4190000  27.0250000  78.3130000   7.2320000  27.6980000  76.0930000
   6.5980000  26.9240000  79.6870000   7.9870000  27.2740000  81.7090000
  10.4360000  29.3150000  75.0350000   8.2130000  28.2560000  75.2620000
   5.6140000  26.7040000  77.9230000   6.4190000  27.3810000  75.7200000
   5.6020000  26.3380000  80.5500000   8.7860000  27.5810000  82.1210000
   7.0080000  26.7230000  82.4710000  10.2570000  29.4160000  73.6600000
  11.2410000  29.6360000  75.4240000   8.0570000  28.3750000  73.8710000
   5.8000000  26.2410000  81.8860000   4.7920000  26.0140000  80.1750000
   7.1290000  26.6580000  83.4110000  11.2530000  30.0020000  72.7970000
   9.0330000  28.9400000  73.0610000   7.2550000  28.0570000  73.4700000
   5.1320000  25.8490000  82.4350000  11.0550000  30.0990000  71.4610000
  12.0630000  30.3260000  73.1720000   8.8690000  29.0660000  71.6380000
   9.8480000  29.6170000  70.8770000  11.7240000  30.4910000  70.9120000
   8.0690000  28.7590000  71.2270000   9.7270000  29.6820000  69.9360000
   8.7140000  31.5320000  89.3190000   8.5580000  31.6520000  87.9270000
   7.7330000  30.9750000  90.1500000   9.9450000  32.0200000  89.9230000
   7.7570000  31.3340000  87.5270000   9.5340000  32.2170000  87.1180000
   6.9200000  30.6580000  89.7770000   7.9130000  30.8730000  91.5370000
  10.9370000  32.5920000  89.0910000  10.1250000  31.9180000  91.3110000
  10.7580000  32.6930000  87.7170000   9.3700000  32.3420000  85.6950000
   6.9210000  30.3020000  92.3690000   9.1430000  31.3610000  92.1420000
  11.7420000  32.9130000  89.4810000  10.9380000  32.2360000  91.6830000
  11.7550000  33.2790000  86.8530000   8.5700000  32.0360000  85.2830000
  10.3490000  32.8930000  84.9330000   7.0990000  30.2000000  93.7440000
   6.1150000  29.9800000  91.9800000   9.3000000  31.2420000  93.5330000
  11.5570000  33.3760000  85.5180000  12.5640000  33.6030000  87.2290000
  10.2280000  32.9580000  83.9930000   6.1030000  29.6150000  94.6070000
   8.3240000  30.6760000  94.3430000  10.1010000  31.5590000  93.9340000
  12.2250000  33.7680000  84.9680000   6.3010000  29.5170000  95.9430000
   5.2940000  29.2910000  94.2320000   8.4880000  30.5510000  95.7650000
   7.5090000  30.0000000  96.5270000   5.6330000  29.1260000  96.4920000
   9.2880000  30.8580000  96.1770000   7.6300000  29.9350000  97.4680000
   7.2110000  21.7020000  47.1490000   7.0540000  21.8210000  45.7570000
   6.2290000  21.1450000  47.9790000   8.4410000  22.1900000  47.7530000
   6.2530000  21.5040000  45.3560000   8.0300000  22.3870000  44.9470000
   5.4160000  20.8270000  47.6070000   6.4090000  21.0430000  49.3670000
   9.4330000  22.7610000  46.9210000   8.6210000  22.0880000  49.1400000
   9.2550000  22.8630000  45.5460000   7.8660000  22.5120000  43.5250000
   5.4170000  20.4710000  50.1990000   7.6400000  21.5310000  49.9710000
  10.2390000  23.0830000  47.3100000   9.4340000  22.4050000  49.5130000
  10.2510000  23.4480000  44.6830000   7.0670000  22.2050000  43.1130000
   8.8450000  23.0630000  42.7630000   5.5960000  20.3700000  51.5740000
   4.6120000  20.1500000  49.8100000   7.7960000  21.4110000  51.3630000
  10.0530000  23.5460000  43.3480000  11.0610000  23.7720000  45.0580000
   8.7240000  23.1280000  41.8220000   4.6000000  19.7840000  52.4370000
   6.8200000  20.8460000  52.1730000   8.5970000  21.7290000  51.7630000
  10.7210000  23.9370000  42.7980000   4.7980000  19.6870000  53.7720000
   3.7900000  19.4600000  52.0610000   6.9840000  20.7210000  53.5950000
   6.0050000  20.1700000  54.3570000   4.1290000  19.2950000  54.3220000
   7.7840000  21.0270000  54.0070000   6.1260000  20.1050000  55.2970000
   6.1360000  11.7000000   7.8010000   6.2920000  11.5810000   9.1920000
   7.1170000  12.2570000   6.9700000   4.9050000  11.2120000   7.1960000
   7.0940000  11.8980000   9.5930000   5.3160000  11.0150000  10.0020000
   7.9310000  12.5750000   7.3430000   6.9380000  12.3590000   5.5830000
   3.9130000  10.6410000   8.0280000   4.7260000  11.3140000   5.8090000
   4.0920000  10.5390000   9.4030000   5.4800000  10.8900000  11.4250000
   7.9300000  12.9310000   4.7500000   5.7070000  11.8710000   4.9780000
   3.1080000  10.3190000   7.6390000   3.9120000  10.9970000   5.4360000
   3.0960000   9.9540000  10.2660000   6.2800000  11.1970000  11.8360000
   4.5010000  10.3390000  12.1860000   7.7510000  13.0320000   3.3760000
   8.7350000  13.2520000   5.1400000   5.5500000  11.9910000   3.5870000
   3.2940000   9.8560000  11.6020000   2.2860000   9.6300000   9.8910000
   4.6220000  10.2740000  13.1270000   8.7470000  13.6180000   2.5130000
   6.5260000  12.5560000   2.7770000   4.7490000  11.6730000   3.1860000
   2.6250000   9.4650000  12.1510000   8.5490000  13.7150000   1.1770000
   9.5570000  13.9420000   2.8880000   6.3630000  12.6810000   1.3540000
   7.3420000  13.2320000   0.5920000   9.2170000  14.1070000   0.6280000
   5.5630000  12.3750000   0.9420000   7.2200000  13.2970000  -0.3480000
   6.4430000  19.5500000   4.9780000   6.2870000  19.6690000   3.5870000
   5.4620000  18.9930000   5.8090000   7.6740000  20.0380000   5.5830000
   5.4850000  19.3520000   3.1860000   7.2620000  20.2350000   2.7770000
   4.6480000  18.6760000   5.4360000   5.6410000  18.8910000   7.1960000
   8.6660000  20.6100000   4.7500000   7.8530000  19.9360000   6.9700000
   8.4870000  20.7110000   3.3760000   7.0990000  20.3600000   1.3540000
   4.6490000  18.3190000   8.0280000   6.8720000  19.3790000   7.8010000
   9.4710000  20.9310000   5.1400000   8.6670000  20.2530000   7.3430000
   9.4830000  21.2960000   2.5130000   6.2990000  20.0540000   0.9420000
   8.0780000  20.9110000   0.5920000   4.8280000  18.2180000   9.4030000
   3.8440000  17.9980000   7.6390000   7.0280000  19.2590000   9.1920000
   9.2850000  21.3940000   1.1770000  10.2930000  21.6200000   2.8880000
   7.9560000  20.9760000  -0.3480000   3.8320000  17.6320000  10.2660000
   6.0530000  18.6940000  10.0020000   7.8300000  19.5770000   9.5930000
   9.9540000  21.7850000   0.6280000   4.0300000  17.5350000  11.6020000
   3.0220000  17.3080000   9.8910000   6.2160000  18.5690000  11.4250000
   5.2370000  18.0180000  12.1860000   3.3610000  17.1430000  12.1510000
   7.0160000  18.8750000  11.8360000   5.3590000  17.9530000  13.1270000
   8.1090000  30.3340000  21.8580000   8.2660000  30.2150000  23.2490000
   9.0910000  30.8910000  21.0270000   6.8790000  29.8460000  21.2530000
   9.0670000  30.5320000  23.6500000   7.2900000  29.6490000  24.0590000
   9.9040000  31.2090000  21.3990000   8.9110000  30.9930000  19.6390000
   5.8870000  29.2750000  22.0850000   6.6990000  29.9480000  19.8660000
   6.0650000  29.1740000  23.4600000   7.4540000  29.5240000  25.4810000
   9.9030000  31.5650000  18.8070000   7.6800000  30.5050000  19.0350000
   5.0810000  28.9530000  21.6960000   5.8860000  29.6310000  19.4930000
   5.0690000  28.5880000  24.3230000   8.2540000  29.8310000  25.8930000
   6.4750000  28.9730000  26.2430000   9.7240000  31.6660000  17.4320000
  10.7080000  31.8860000  19.1970000   7.5240000  30.6250000  17.6430000
   5.2670000  28.4900000  25.6590000   4.2600000  28.2640000  23.9480000
   6.5960000  28.9080000  27.1840000  10.7200000  32.2520000  16.5690000
   8.5000000  31.1900000  16.8340000   6.7230000  30.3070000  17.2430000
   4.5990000  28.0990000  26.2080000  10.5220000  32.3490000  15.2340000
  11.5300000  32.5760000  16.9450000   8.3360000  31.3150000  15.4110000
   9.3150000  31.8670000  14.6490000  11.1910000  32.7410000  14.6840000
   7.5360000  31.0090000  14.9990000   9.1940000  31.9310000  13.7090000
   8.6110000  33.6110000  35.9140000   8.7670000  33.4920000  37.3060000
   9.5920000  34.1680000  35.0840000   7.3800000  33.1230000  35.3100000
   9.5680000  33.8090000  37.7070000   7.7910000  32.9260000  38.1160000
  10.4050000  34.4850000  35.4560000   9.4120000  34.2700000  33.6960000
   6.3880000  32.5510000  36.1420000   7.2000000  33.2250000  33.9230000
   6.5670000  32.4500000  37.5170000   7.9550000  32.8010000  39.5380000
  10.4040000  34.8420000  32.8640000   8.1820000  33.7820000  33.0920000
   5.5830000  32.2300000  35.7530000   6.3870000  32.9080000  33.5500000
   5.5710000  31.8640000  38.3800000   8.7550000  33.1070000  39.9500000
   6.9760000  32.2500000  40.3000000  10.2260000  34.9430000  31.4890000
  11.2100000  35.1630000  33.2530000   8.0250000  33.9020000  31.7000000
   5.7690000  31.7670000  39.7150000   4.7610000  31.5410000  38.0050000
   7.0970000  32.1850000  41.2410000  11.2220000  35.5290000  30.6260000
   9.0010000  34.4670000  30.8900000   7.2240000  33.5840000  31.3000000
   5.1000000  31.3760000  40.2650000  11.0240000  35.6260000  29.2910000
  12.0310000  35.8530000  31.0020000   8.8370000  34.5920000  29.4680000
   9.8160000  35.1430000  28.7060000  11.6920000  36.0180000  28.7410000
   8.0370000  34.2860000  29.0560000   9.6950000  35.2080000  27.7660000
  10.1870000  46.8900000  89.3190000  10.0300000  47.0090000  87.9270000
   9.2060000  46.3320000  90.1500000  11.4170000  47.3780000  89.9230000
   9.2290000  46.6910000  87.5270000  11.0060000  47.5740000  87.1180000
   8.3920000  46.0150000  89.7770000   9.3850000  46.2300000  91.5370000
  12.4090000  47.9490000  89.0910000  11.5970000  47.2760000  91.3110000
  12.2310000  48.0500000  87.7170000  10.8420000  47.7000000  85.6950000
   8.3930000  45.6590000  92.3690000  10.6160000  46.7180000  92.1420000
  13.2150000  48.2700000  89.4810000  12.4100000  47.5930000  91.6830000
  13.2270000  48.6360000  86.8530000  10.0430000  47.3930000  85.2830000
  11.8210000  48.2510000  84.9330000   8.5720000  45.5580000  93.7440000
   7.5880000  45.3380000  91.9800000  10.7720000  46.5990000  93.5330000
  13.0290000  48.7330000  85.5180000  14.0370000  48.9600000  87.2290000
  11.7000000  48.3160000  83.9930000   7.5760000  44.9720000  94.6070000
   9.7960000  46.0340000  94.3430000  11.5740000  46.9160000  93.9340000
  13.6970000  49.1250000  84.9680000   7.7740000  44.8750000  95.9430000
   6.7660000  44.6480000  94.2320000   9.9600000  45.9080000  95.7650000
   8.9810000  45.3570000  96.5270000   7.1050000  44.4830000  96.4920000
  10.7600000  46.2150000  96.1770000   9.1020000  45.2920000  97.4680000
  43.5600000  41.5150000  47.3360000  43.3900000  42.1920000  46.1110000
  42.5840000  41.5200000  48.3390000  44.8040000  40.7860000  47.5670000
  42.5890000  42.6790000  45.9590000  44.3620000  42.1640000  45.1220000
  41.7710000  41.9920000  48.2080000  42.7550000  40.8400000  49.5520000
  45.7890000  40.7810000  46.5480000  44.9750000  40.1060000  48.7810000
  45.5930000  41.4400000  45.3480000  44.1900000  42.8240000  43.8680000
  41.7710000  40.8450000  50.5710000  43.9990000  40.1110000  49.7840000
  46.6030000  40.3130000  46.6930000  45.7880000  39.6330000  48.9110000
  46.5770000  41.4230000  44.3110000  43.3880000  43.3050000  43.7020000
  45.1480000  42.7810000  42.9090000  41.9660000  40.1860000  51.7720000
  40.9560000  41.3120000  50.4270000  44.1700000  39.4340000  51.0090000
  46.3660000  42.0670000  43.1380000  47.3920000  40.9540000  44.4470000
  45.0100000  43.2260000  42.0810000  40.9820000  40.2020000  52.8090000
  43.1970000  39.4610000  51.9980000  44.9710000  38.9460000  51.1600000
  47.0330000  42.0430000  42.4620000  41.1930000  39.5590000  53.9820000
  40.1670000  40.6710000  52.6730000  43.3690000  38.8010000  53.2520000
  42.4110000  38.8440000  54.2110000  40.5270000  39.5820000  54.6580000
  44.1710000  38.3200000  53.4180000  42.5490000  38.3990000  55.0390000
  44.0610000  44.7920000  61.3920000  43.8910000  45.4680000  60.1680000
  43.0860000  44.7970000  62.3960000  45.3060000  44.0620000  61.6240000
  43.0900000  45.9560000  60.0160000  44.8640000  45.4410000  59.1780000
  42.2720000  45.2690000  62.2650000  43.2560000  44.1170000  63.6090000
  46.2900000  44.0580000  60.6050000  45.4760000  43.3820000  62.8370000
  46.0940000  44.7170000  59.4050000  44.6920000  46.1010000  57.9250000
  42.2720000  44.1220000  64.6280000  44.5000000  43.3880000  63.8410000
  47.1040000  43.5900000  60.7500000  46.2900000  42.9100000  62.9680000
  47.0780000  44.7000000  58.3670000  43.8890000  46.5820000  57.7590000
  45.6490000  46.0580000  56.9660000  42.4680000  43.4620000  65.8290000
  41.4580000  44.5890000  64.4830000  44.6710000  42.7110000  65.0650000
  46.8670000  45.3440000  57.1950000  47.8930000  44.2310000  58.5040000
  45.5110000  46.5030000  56.1380000  41.4830000  43.4790000  66.8660000
  43.6980000  42.7380000  66.0550000  45.4720000  42.2230000  65.2170000
  47.5340000  45.3200000  56.5190000  41.6940000  42.8360000  68.0380000
  40.6690000  43.9480000  66.7300000  43.8700000  42.0780000  67.3090000
  42.9120000  42.1210000  68.2680000  41.0280000  42.8590000  68.7150000
  44.6730000  41.5970000  67.4750000  43.0510000  41.6760000  69.0960000
   8.4160000  38.1840000  19.0350000   8.2600000  38.3030000  17.6430000
   7.4350000  37.6270000  19.8660000   9.6470000  38.6720000  19.6390000
   7.4590000  37.9860000  17.2430000   9.2360000  38.8690000  16.8340000
   6.6220000  37.3100000  19.4930000   7.6150000  37.5250000  21.2530000
  10.6390000  39.2440000  18.8070000   9.8270000  38.5700000  21.0270000
  10.4610000  39.3450000  17.4320000   9.0720000  38.9940000  15.4110000
   6.6230000  36.9530000  22.0850000   8.8460000  38.0130000  21.8580000
  11.4450000  39.5650000  19.1970000  10.6400000  38.8870000  21.3990000
  11.4570000  39.9310000  16.5690000   8.2720000  38.6880000  14.9990000
  10.0510000  39.5450000  14.6490000   6.8010000  36.8520000  23.4600000
   5.8170000  36.6320000  21.6960000   9.0020000  37.8930000  23.2490000
  11.2590000  40.0280000  15.2340000  12.2660000  40.2550000  16.9450000
   9.9300000  39.6100000  13.7090000   5.8050000  36.2660000  24.3230000
   8.0260000  37.3280000  24.0590000   9.8030000  38.2110000  23.6500000
  11.9270000  40.4190000  14.6840000   6.0030000  36.1690000  25.6590000
   4.9960000  35.9420000  23.9480000   8.1900000  37.2030000  25.4810000
   7.2110000  36.6520000  26.2430000   5.3350000  35.7770000  26.2080000
   8.9900000  37.5090000  25.8930000   7.3320000  36.5870000  27.1840000
   9.3470000  41.2900000  35.9140000   9.5030000  41.1700000  37.3060000
  10.3280000  41.8470000  35.0840000   8.1160000  40.8020000  35.3100000
  10.3050000  41.4880000  37.7070000   8.5270000  40.6050000  38.1160000
  11.1410000  42.1640000  35.4560000  10.1490000  41.9490000  33.6960000
   7.1240000  40.2300000  36.1420000   7.9370000  40.9040000  33.9230000
   7.3030000  40.1290000  37.5170000   8.6910000  40.4800000  39.5380000
  11.1400000  42.5200000  32.8640000   8.9180000  41.4610000  33.0920000
   6.3190000  39.9090000  35.7530000   7.1230000  40.5860000  33.5500000
   6.3070000  39.5430000  38.3800000   9.4910000  40.7860000  39.9500000
   7.7120000  39.9290000  40.3000000  10.9620000  42.6210000  31.4890000
  11.9460000  42.8420000  33.2530000   8.7610000  41.5800000  31.7000000
   6.5050000  39.4460000  39.7150000   5.4970000  39.2190000  38.0050000
   7.8330000  39.8640000  41.2410000  11.9580000  43.2070000  30.6260000
   9.7370000  42.1460000  30.8900000   7.9600000  41.2630000  31.3000000
   5.8360000  39.0540000  40.2650000  11.7600000  43.3050000  29.2910000
  12.7680000  43.5310000  31.0020000   9.5730000  42.2710000  29.4680000
  10.5520000  42.8220000  28.7060000  12.4280000  43.6960000  28.7410000
   8.7740000  41.9640000  29.0560000  10.4310000  42.8870000  27.7660000
   9.8480000  44.5660000  49.9710000  10.0040000  44.4470000  51.3630000
  10.8290000  45.1240000  49.1400000   8.6170000  44.0780000  49.3670000
  10.8060000  44.7650000  51.7630000   9.0290000  43.8820000  52.1730000
  11.6430000  45.4410000  49.5130000  10.6500000  45.2260000  47.7530000
   7.6250000  43.5070000  50.1990000   8.4380000  44.1800000  47.9790000
   7.8040000  43.4060000  51.5740000   9.1920000  43.7560000  53.5950000
  11.6420000  45.7970000  46.9210000   9.4190000  44.7380000  47.1490000
   6.8200000  43.1860000  49.8100000   7.6240000  43.8630000  47.6070000
   6.8080000  42.8200000  52.4370000   9.9920000  44.0630000  54.0070000
   8.2130000  43.2050000  54.3570000  11.4630000  45.8980000  45.5460000
  12.4470000  46.1180000  47.3100000   9.2630000  44.8570000  45.7570000
   7.0060000  42.7230000  53.7720000   5.9980000  42.4960000  52.0610000
   8.3350000  43.1400000  55.2970000  12.4590000  46.4840000  44.6830000
  10.2390000  45.4220000  44.9470000   8.4610000  44.5400000  45.3560000
   6.3380000  42.3310000  54.3220000  12.2610000  46.5810000  43.3480000
  13.2690000  46.8080000  45.0580000  10.0750000  45.5480000  43.5250000
  11.0540000  46.0990000  42.7630000  12.9300000  46.9730000  42.7980000
   9.2750000  45.2410000  43.1130000  10.9330000  46.1640000  41.8220000
  10.9230000  54.5680000  89.3190000  10.7660000  54.6880000  87.9270000
   9.9420000  54.0110000  90.1500000  12.1540000  55.0560000  89.9230000
   9.9650000  54.3700000  87.5270000  11.7420000  55.2530000  87.1180000
   9.1280000  53.6940000  89.7770000  10.1210000  53.9090000  91.5370000
  13.1460000  55.6280000  89.0910000  12.3330000  54.9540000  91.3110000
  12.9670000  55.7290000  87.7170000  11.5780000  55.3780000  85.6950000
   9.1290000  53.3370000  92.3690000  11.3520000  54.3970000  92.1420000
  13.9510000  55.9490000  89.4810000  13.1460000  55.2710000  91.6830000
  13.9630000  56.3150000  86.8530000  10.7790000  55.0720000  85.2830000
  12.5570000  55.9290000  84.9330000   9.3080000  53.2360000  93.7440000
   8.3240000  53.0160000  91.9800000  11.5080000  54.2770000  93.5330000
  13.7650000  56.4120000  85.5180000  14.7730000  56.6390000  87.2290000
  12.4360000  55.9940000  83.9930000   8.3120000  52.6500000  94.6070000
  10.5320000  53.7120000  94.3430000  12.3100000  54.5950000  93.9340000
  14.4330000  56.8040000  84.9680000   8.5100000  52.5530000  95.9430000
   7.5020000  52.3260000  94.2320000  10.6960000  53.5870000  95.7650000
   9.7170000  53.0360000  96.5270000   7.8410000  52.1620000  96.4920000
  11.4960000  53.8930000  96.1770000   9.8380000  52.9710000  97.4680000
  44.2960000  49.1930000  47.3360000  44.1260000  49.8700000  46.1110000
  43.3210000  49.1990000  48.3390000  45.5400000  48.4640000  47.5670000
  43.3250000  50.3580000  45.9590000  45.0980000  49.8430000  45.1220000
  42.5070000  49.6710000  48.2080000  43.4910000  48.5180000  49.5520000
  46.5250000  48.4590000  46.5480000  45.7110000  47.7840000  48.7810000
  46.3290000  49.1190000  45.3480000  44.9270000  50.5030000  43.8680000
  42.5070000  48.5230000  50.5710000  44.7350000  47.7890000  49.7840000
  47.3390000  47.9920000  46.6930000  46.5250000  47.3120000  48.9110000
  47.3130000  49.1020000  44.3110000  44.1240000  50.9840000  43.7020000
  45.8840000  50.4600000  42.9090000  42.7020000  47.8640000  51.7720000
  41.6920000  48.9910000  50.4270000  44.9060000  47.1130000  51.0090000
  47.1020000  49.7450000  43.1380000  48.1280000  48.6330000  44.4470000
  45.7460000  50.9050000  42.0810000  41.7180000  47.8810000  52.8090000
  43.9330000  47.1400000  51.9980000  45.7070000  46.6250000  51.1600000
  47.7690000  49.7220000  42.4620000  41.9290000  47.2370000  53.9820000
  40.9030000  48.3500000  52.6730000  44.1050000  46.4800000  53.2520000
  43.1470000  46.5230000  54.2110000  41.2630000  47.2610000  54.6580000
  44.9070000  45.9990000  53.4180000  43.2860000  46.0780000  55.0390000
  44.7980000  52.4700000  61.3920000  44.6270000  53.1470000  60.1680000
  43.8220000  52.4750000  62.3960000  46.0420000  51.7410000  61.6240000
  43.8260000  53.6340000  60.0160000  45.6000000  53.1200000  59.1780000
  43.0080000  52.9480000  62.2650000  43.9920000  51.7950000  63.6090000
  47.0260000  51.7360000  60.6050000  46.2120000  51.0610000  62.8370000
  46.8300000  52.3950000  59.4050000  45.4280000  53.7800000  57.9250000
  43.0080000  51.8000000  64.6280000  45.2360000  51.0660000  63.8410000
  47.8400000  51.2690000  60.7500000  47.0260000  50.5890000  62.9680000
  47.8150000  52.3790000  58.3670000  44.6250000  54.2610000  57.7590000
  46.3860000  53.7370000  56.9660000  43.2040000  51.1410000  65.8290000
  42.1940000  52.2680000  64.4830000  45.4070000  50.3890000  65.0650000
  47.6030000  53.0220000  57.1950000  48.6290000  51.9100000  58.5040000
  46.2470000  54.1820000  56.1380000  42.2190000  51.1580000  66.8660000
  44.4340000  50.4170000  66.0550000  46.2080000  49.9020000  65.2170000
  48.2700000  52.9990000  56.5190000  42.4310000  50.5140000  68.0380000
  41.4050000  51.6270000  66.7300000  44.6060000  49.7570000  67.3090000
  43.6480000  49.8000000  68.2680000  41.7640000  50.5370000  68.7150000
  45.4090000  49.2760000  67.4750000  43.7870000  49.3550000  69.0960000
   9.1530000  45.8630000  19.0350000   8.9960000  45.9820000  17.6430000
   8.1710000  45.3050000  19.8660000  10.3830000  46.3510000  19.6390000
   8.1950000  45.6640000  17.2430000   9.9720000  46.5470000  16.8340000
   7.3580000  44.9880000  19.4930000   8.3510000  45.2030000  21.2530000
  11.3750000  46.9220000  18.8070000  10.5630000  46.2490000  21.0270000
  11.1970000  47.0230000  17.4320000   9.8080000  46.6730000  15.4110000
   7.3590000  44.6320000  22.0850000   9.5820000  45.6910000  21.8580000
  12.1810000  47.2430000  19.1970000  11.3760000  46.5660000  21.3990000
  12.1930000  47.6090000  16.5690000   9.0080000  46.3660000  14.9990000
  10.7870000  47.2240000  14.6490000   7.5380000  44.5310000  23.4600000
   6.5540000  44.3110000  21.6960000   9.7380000  45.5720000  23.2490000
  11.9950000  47.7060000  15.2340000  13.0020000  47.9330000  16.9450000
  10.6660000  47.2890000  13.7090000   6.5420000  43.9450000  24.3230000
   8.7620000  45.0070000  24.0590000  10.5390000  45.8900000  23.6500000
  12.6630000  48.0980000  14.6840000   6.7400000  43.8480000  25.6590000
   5.7320000  43.6210000  23.9480000   8.9260000  44.8810000  25.4810000
   7.9470000  44.3300000  26.2430000   6.0710000  43.4560000  26.2080000
   9.7260000  45.1880000  25.8930000   8.0680000  44.2650000  27.1840000
  10.0830000  48.9680000  35.9140000  10.2390000  48.8490000  37.3060000
  11.0640000  49.5250000  35.0840000   8.8520000  48.4800000  35.3100000
  11.0410000  49.1660000  37.7070000   9.2630000  48.2830000  38.1160000
  11.8780000  49.8430000  35.4560000  10.8850000  49.6270000  33.6960000
   7.8600000  47.9090000  36.1420000   8.6730000  48.5820000  33.9230000
   8.0390000  47.8080000  37.5170000   9.4270000  48.1580000  39.5380000
  11.8770000  50.1990000  32.8640000   9.6540000  49.1390000  33.0920000
   7.0550000  47.5870000  35.7530000   7.8590000  48.2650000  33.5500000
   7.0430000  47.2220000  38.3800000  10.2270000  48.4650000  39.9500000
   8.4480000  47.6070000  40.3000000  11.6980000  50.3000000  31.4890000
  12.6820000  50.5200000  33.2530000   9.4970000  49.2590000  31.7000000
   7.2410000  47.1240000  39.7150000   6.2330000  46.8980000  38.0050000
   8.5690000  47.5420000  41.2410000  12.6940000  50.8860000  30.6260000
  10.4730000  49.8240000  30.8900000   8.6960000  48.9410000  31.3000000
   6.5720000  46.7330000  40.2650000  12.4960000  50.9830000  29.2910000
  13.5040000  51.2100000  31.0020000  10.3100000  49.9490000  29.4680000
  11.2890000  50.5010000  28.7060000  13.1640000  51.3750000  28.7410000
   9.5100000  49.6430000  29.0560000  11.1670000  50.5650000  27.7660000
  10.1550000  52.4160000  47.1490000   9.9990000  52.5360000  45.7570000
   9.1740000  51.8590000  47.9790000  11.3860000  52.9040000  47.7530000
   9.1970000  52.2180000  45.3560000  10.9750000  53.1010000  44.9470000
   8.3600000  51.5420000  47.6070000   9.3530000  51.7570000  49.3670000
  12.3780000  53.4760000  46.9210000  11.5650000  52.8020000  49.1400000
  12.1990000  53.5770000  45.5460000  10.8110000  53.2260000  43.5250000
   8.3610000  51.1850000  50.1990000  10.5840000  52.2450000  49.9710000
  13.1830000  53.7970000  47.3100000  12.3790000  53.1200000  49.5130000
  13.1950000  54.1630000  44.6830000  10.0110000  52.9200000  43.1130000
  11.7900000  53.7770000  42.7630000   8.5400000  51.0840000  51.5740000
   7.5560000  50.8640000  49.8100000  10.7410000  52.1260000  51.3630000
  12.9970000  54.2600000  43.3480000  14.0050000  54.4870000  45.0580000
  11.6690000  53.8420000  41.8220000   7.5440000  50.4990000  52.4370000
   9.7650000  51.5600000  52.1730000  11.5420000  52.4430000  51.7630000
  13.6660000  54.6520000  42.7980000   7.7420000  50.4010000  53.7720000
   6.7340000  50.1750000  52.0610000   9.9280000  51.4350000  53.5950000
   8.9500000  50.8840000  54.3570000   7.0740000  50.0100000  54.3220000
  10.7280000  51.7410000  54.0070000   9.0710000  50.8190000  55.2970000
  11.6590000  62.2470000  89.3190000  11.5020000  62.3660000  87.9270000
  10.6780000  61.6890000  90.1500000  12.8900000  62.7350000  89.9230000
  10.7010000  62.0490000  87.5270000  12.4780000  62.9320000  87.1180000
   9.8640000  61.3720000  89.7770000  10.8570000  61.5880000  91.5370000
  13.8820000  63.3060000  89.0910000  13.0690000  62.6330000  91.3110000
  13.7030000  63.4070000  87.7170000  12.3150000  63.0570000  85.6950000
   9.8650000  61.0160000  92.3690000  12.0880000  62.0760000  92.1420000
  14.6870000  63.6270000  89.4810000  13.8830000  62.9500000  91.6830000
  14.6990000  63.9930000  86.8530000  11.5150000  62.7500000  85.2830000
  13.2940000  63.6080000  84.9330000  10.0440000  60.9150000  93.7440000
   9.0600000  60.6950000  91.9800000  12.2440000  61.9560000  93.5330000
  14.5010000  64.0900000  85.5180000  15.5090000  64.3170000  87.2290000
  13.1720000  63.6730000  83.9930000   9.0480000  60.3290000  94.6070000
  11.2680000  61.3910000  94.3430000  13.0460000  62.2740000  93.9340000
  15.1690000  64.4820000  84.9680000   9.2460000  60.2320000  95.9430000
   8.2380000  60.0050000  94.2320000  11.4320000  61.2660000  95.7650000
  10.4530000  60.7140000  96.5270000   8.5770000  59.8400000  96.4920000
  12.2320000  61.5720000  96.1770000  10.5740000  60.6500000  97.4680000
   9.8890000  53.5410000  19.0350000   9.7320000  53.6610000  17.6430000
   8.9080000  52.9840000  19.8660000  11.1200000  54.0290000  19.6390000
   8.9310000  53.3430000  17.2430000  10.7080000  54.2260000  16.8340000
   8.0940000  52.6670000  19.4930000   9.0870000  52.8820000  21.2530000
  12.1110000  54.6010000  18.8070000  11.2990000  53.9270000  21.0270000
  11.9330000  54.7020000  17.4320000  10.5440000  54.3510000  15.4110000
   8.0950000  52.3100000  22.0850000  10.3180000  53.3700000  21.8580000
  12.9170000  54.9220000  19.1970000  12.1120000  54.2440000  21.3990000
  12.9290000  55.2880000  16.5690000   9.7450000  54.0450000  14.9990000
  11.5230000  54.9020000  14.6490000   8.2740000  52.2090000  23.4600000
   7.2900000  51.9890000  21.6960000  10.4740000  53.2510000  23.2490000
  12.7310000  55.3850000  15.2340000  13.7390000  55.6120000  16.9450000
  11.4020000  54.9670000  13.7090000   7.2780000  51.6230000  24.3230000
   9.4980000  52.6850000  24.0590000  11.2760000  53.5680000  23.6500000
  13.3990000  55.7770000  14.6840000   7.4760000  51.5260000  25.6590000
   6.4680000  51.2990000  23.9480000   9.6620000  52.5600000  25.4810000
   8.6830000  52.0090000  26.2430000   6.8070000  51.1350000  26.2080000
  10.4620000  52.8660000  25.8930000   8.8040000  51.9440000  27.1840000
  10.8190000  56.6470000  35.9140000  10.9750000  56.5270000  37.3060000
  11.8000000  57.2040000  35.0840000   9.5880000  56.1590000  35.3100000
  11.7770000  56.8450000  37.7070000  10.0000000  55.9620000  38.1160000
  12.6140000  57.5210000  35.4560000  11.6210000  57.3060000  33.6960000
   8.5960000  55.5870000  36.1420000   9.4090000  56.2610000  33.9230000
   8.7750000  55.4860000  37.5170000  10.1630000  55.8370000  39.5380000
  12.6130000  57.8780000  32.8640000  10.3900000  56.8180000  33.0920000
   7.7910000  55.2660000  35.7530000   8.5950000  55.9440000  33.5500000
   7.7790000  54.9000000  38.3800000  10.9630000  56.1430000  39.9500000
   9.1840000  55.2860000  40.3000000  12.4340000  57.9790000  31.4890000
  13.4180000  58.1990000  33.2530000  10.2340000  56.9370000  31.7000000
   7.9770000  54.8030000  39.7150000   6.9690000  54.5760000  38.0050000
   9.3060000  55.2210000  41.2410000  13.4300000  58.5650000  30.6260000
  11.2090000  57.5030000  30.8900000   9.4320000  56.6200000  31.3000000
   7.3080000  54.4110000  40.2650000  13.2320000  58.6620000  29.2910000
  14.2400000  58.8890000  31.0020000  11.0460000  57.6280000  29.4680000
  12.0250000  58.1790000  28.7060000  13.9010000  59.0530000  28.7410000
  10.2460000  57.3220000  29.0560000  11.9030000  58.2440000  27.7660000
  11.3200000  59.9240000  49.9710000  11.4770000  59.8040000  51.3630000
  12.3010000  60.4810000  49.1400000  10.0890000  59.4360000  49.3670000
  12.2780000  60.1220000  51.7630000  10.5010000  59.2390000  52.1730000
  13.1150000  60.7980000  49.5130000  12.1220000  60.5830000  47.7530000
   9.0980000  58.8640000  50.1990000   9.9100000  59.5380000  47.9790000
   9.2760000  58.7630000  51.5740000  10.6650000  59.1140000  53.5950000
  13.1140000  61.1540000  46.9210000  10.8910000  60.0950000  47.1490000
   8.2920000  58.5430000  49.8100000   9.0970000  59.2200000  47.6070000
   8.2800000  58.1770000  52.4370000  11.4640000  59.4200000  54.0070000
   9.6860000  58.5630000  54.3570000  12.9350000  61.2560000  45.5460000
  13.9190000  61.4760000  47.3100000  10.7350000  60.2140000  45.7570000
   8.4780000  58.0800000  53.7720000   7.4700000  57.8530000  52.0610000
   9.8070000  58.4980000  55.2970000  13.9310000  61.8410000  44.6830000
  11.7110000  60.7800000  44.9470000   9.9330000  59.8970000  45.3560000
   7.8100000  57.6880000  54.3220000  13.7330000  61.9390000  43.3480000
  14.7410000  62.1650000  45.0580000  11.5470000  60.9050000  43.5250000
  12.5260000  61.4560000  42.7630000  14.4020000  62.3300000  42.7980000
  10.7470000  60.5980000  43.1130000  12.4050000  61.5210000  41.8220000
  11.8220000  63.2000000  64.0280000  11.9780000  63.0810000  65.4200000
  12.8030000  63.7580000  63.1970000  10.5910000  62.7120000  63.4240000
  12.7790000  63.3990000  65.8200000  11.0020000  62.5160000  66.2290000
  13.6160000  64.0750000  63.5700000  12.6230000  63.8600000  61.8100000
   9.5990000  62.1410000  64.2560000  10.4110000  62.8140000  62.0360000
   9.7770000  62.0400000  65.6300000  11.1660000  62.3900000  67.6520000
  13.6150000  64.4310000  60.9780000  11.3930000  63.3720000  61.2050000
   8.7930000  61.8200000  63.8660000   9.5980000  62.4970000  61.6640000
   8.7810000  61.4540000  66.4940000  11.9660000  62.6970000  68.0640000
  10.1870000  61.8390000  68.4140000  13.4370000  64.5320000  59.6030000
  14.4210000  64.7520000  61.3670000  11.2360000  63.4910000  59.8140000
   8.9790000  61.3570000  67.8290000   7.9720000  61.1300000  66.1180000
  10.3080000  61.7740000  69.3540000  14.4330000  65.1180000  58.7400000
  12.2120000  64.0560000  59.0040000  10.4350000  63.1740000  59.4130000
   8.3110000  60.9650000  68.3790000  14.2350000  65.2150000  57.4040000
  15.2420000  65.4420000  59.1150000  12.0480000  64.1820000  57.5820000
  13.0270000  64.7330000  56.8200000  14.9030000  65.6070000  56.8550000
  11.2480000  63.8750000  57.1700000  12.9060000  64.7980000  55.8790000
  12.3230000  66.4770000  78.0850000  12.4790000  66.3580000  79.4760000
  13.3040000  67.0350000  77.2540000  11.0920000  65.9890000  77.4800000
  13.2810000  66.6750000  79.8770000  11.5030000  65.7930000  80.2860000
  14.1170000  67.3520000  77.6270000  13.1250000  67.1370000  75.8670000
  10.1000000  65.4180000  78.3130000  10.9130000  66.0910000  76.0930000
  10.2790000  65.3170000  79.6870000  11.6670000  65.6670000  81.7090000
  14.1160000  67.7080000  75.0350000  11.8940000  66.6490000  75.2620000
   9.2950000  65.0970000  77.9230000  10.0990000  65.7740000  75.7200000
   9.2830000  64.7310000  80.5500000  12.4670000  65.9740000  82.1210000
  10.6880000  65.1160000  82.4710000  13.9380000  67.8090000  73.6600000
  14.9220000  68.0290000  75.4240000  11.7370000  66.7680000  73.8710000
   9.4810000  64.6340000  81.8860000   8.4730000  64.4070000  80.1750000
  10.8090000  65.0510000  83.4110000  14.9340000  68.3950000  72.7970000
  12.7130000  67.3330000  73.0610000  10.9360000  66.4500000  73.4700000
   8.8120000  64.2420000  82.4350000  14.7360000  68.4920000  71.4610000
  15.7440000  68.7190000  73.1720000  12.5490000  67.4590000  71.6380000
  13.5280000  68.0100000  70.8770000  15.4040000  68.8840000  70.9120000
  11.7500000  67.1520000  71.2270000  13.4070000  68.0750000  69.9360000
  12.3950000  69.9250000  89.3190000  12.2390000  70.0450000  87.9270000
  11.4140000  69.3680000  90.1500000  13.6260000  70.4130000  89.9230000
  11.4370000  69.7270000  87.5270000  13.2150000  70.6100000  87.1180000
  10.6000000  69.0510000  89.7770000  11.5930000  69.2660000  91.5370000
  14.6180000  70.9850000  89.0910000  13.8050000  70.3110000  91.3110000
  14.4390000  71.0860000  87.7170000  13.0510000  70.7350000  85.6950000
  10.6010000  68.6950000  92.3690000  12.8240000  69.7540000  92.1420000
  15.4230000  71.3060000  89.4810000  14.6190000  70.6290000  91.6830000
  15.4350000  71.6720000  86.8530000  12.2510000  70.4290000  85.2830000
  14.0300000  71.2860000  84.9330000  10.7800000  68.5930000  93.7440000
   9.7960000  68.3730000  91.9800000  12.9810000  69.6350000  93.5330000
  15.2370000  71.7690000  85.5180000  16.2450000  71.9960000  87.2290000
  13.9090000  71.3510000  83.9930000   9.7840000  68.0080000  94.6070000
  12.0050000  69.0690000  94.3430000  13.7820000  69.9520000  93.9340000
  15.9060000  72.1610000  84.9680000   9.9820000  67.9100000  95.9430000
   8.9740000  67.6840000  94.2320000  12.1680000  68.9440000  95.7650000
  11.1890000  68.3930000  96.5270000   9.3140000  67.5190000  96.4920000
  12.9680000  69.2510000  96.1770000  11.3110000  68.3280000  97.4680000
  10.6250000  61.2200000  19.0350000  10.4680000  61.3390000  17.6430000
   9.6440000  60.6630000  19.8660000  11.8560000  61.7080000  19.6390000
   9.6670000  61.0220000  17.2430000  11.4440000  61.9050000  16.8340000
   8.8300000  60.3450000  19.4930000   9.8230000  60.5610000  21.2530000
  12.8480000  62.2790000  18.8070000  12.0350000  61.6060000  21.0270000
  12.6690000  62.3800000  17.4320000  11.2810000  62.0300000  15.4110000
   8.8310000  59.9890000  22.0850000  11.0540000  61.0490000  21.8580000
  13.6530000  62.6000000  19.1970000  12.8490000  61.9230000  21.3990000
  13.6650000  62.9660000  16.5690000  10.4810000  61.7230000  14.9990000
  12.2590000  62.5810000  14.6490000   9.0100000  59.8880000  23.4600000
   8.0260000  59.6680000  21.6960000  11.2100000  60.9290000  23.2490000
  13.4670000  63.0640000  15.2340000  14.4750000  63.2900000  16.9450000
  12.1380000  62.6460000  13.7090000   8.0140000  59.3020000  24.3230000
  10.2340000  60.3640000  24.0590000  12.0120000  61.2470000  23.6500000
  14.1350000  63.4550000  14.6840000   8.2120000  59.2050000  25.6590000
   7.2040000  58.9780000  23.9480000  10.3980000  60.2390000  25.4810000
   9.4190000  59.6870000  26.2430000   7.5430000  58.8130000  26.2080000
  11.1980000  60.5450000  25.8930000   9.5400000  59.6230000  27.1840000
  11.1260000  64.4970000  33.0920000  10.9700000  64.6160000  31.7000000
  10.1450000  63.9390000  33.9230000  12.3570000  64.9850000  33.6960000
  10.1680000  64.2980000  31.3000000  11.9460000  65.1810000  30.8900000
   9.3310000  63.6220000  33.5500000  10.3240000  63.8370000  35.3100000
  13.3490000  65.5560000  32.8640000  12.5360000  64.8830000  35.0840000
  13.1700000  65.6570000  31.4890000  11.7820000  65.3070000  29.4680000
   9.3320000  63.2660000  36.1420000  11.5550000  64.3250000  35.9140000
  14.1540000  65.8770000  33.2530000  13.3500000  65.2000000  35.4560000
  14.1660000  66.2430000  30.6260000  10.9820000  65.0000000  29.0560000
  12.7610000  65.8580000  28.7060000   9.5110000  63.1650000  37.5170000
   8.5270000  62.9450000  35.7530000  11.7120000  64.2060000  37.3060000
  13.9680000  66.3400000  29.2910000  14.9760000  66.5670000  31.0020000
  12.6400000  65.9230000  27.7660000   8.5150000  62.5790000  38.3800000
  10.7360000  63.6410000  38.1160000  12.5130000  64.5240000  37.7070000
  14.6370000  66.7320000  28.7410000   8.7130000  62.4820000  39.7150000
   7.7050000  62.2550000  38.0050000  10.8990000  63.5150000  39.5380000
   9.9210000  62.9640000  40.3000000   8.0450000  62.0900000  40.2650000
  11.6990000  63.8220000  39.9500000  10.0420000  62.8990000  41.2410000
  11.6270000  67.7730000  47.1490000  11.4710000  67.8930000  45.7570000
  10.6460000  67.2160000  47.9790000  12.8580000  68.2610000  47.7530000
  10.6700000  67.5750000  45.3560000  12.4470000  68.4580000  44.9470000
   9.8330000  66.8990000  47.6070000  10.8260000  67.1140000  49.3670000
  13.8500000  68.8330000  46.9210000  13.0380000  68.1600000  49.1400000
  13.6710000  68.9340000  45.5460000  12.2830000  68.5830000  43.5250000
   9.8340000  66.5430000  50.1990000  12.0560000  67.6020000  49.9710000
  14.6550000  69.1540000  47.3100000  13.8510000  68.4770000  49.5130000
  14.6670000  69.5200000  44.6830000  11.4830000  68.2770000  43.1130000
  13.2620000  69.1350000  42.7630000  10.0120000  66.4420000  51.5740000
   9.0280000  66.2220000  49.8100000  12.2130000  67.4830000  51.3630000
  14.4690000  69.6170000  43.3480000  15.4770000  69.8440000  45.0580000
  13.1410000  69.1990000  41.8220000   9.0160000  65.8560000  52.4370000
  11.2370000  66.9170000  52.1730000  13.0140000  67.8000000  51.7630000
  15.1380000  70.0090000  42.7980000   9.2140000  65.7590000  53.7720000
   8.2070000  65.5320000  52.0610000  11.4010000  66.7920000  53.5950000
  10.4220000  66.2410000  54.3570000   8.5460000  65.3670000  54.3220000
  12.2010000  67.0990000  54.0070000  10.5430000  66.1760000  55.2970000
  12.1290000  71.0500000  61.2050000  11.9720000  71.1700000  59.8140000
  11.1470000  70.4930000  62.0360000  13.3590000  71.5380000  61.8100000
  11.1710000  70.8520000  59.4130000  12.9480000  71.7350000  59.0040000
  10.3340000  70.1760000  61.6640000  11.3270000  70.3910000  63.4240000
  14.3510000  72.1100000  60.9780000  13.5390000  71.4360000  63.1970000
  14.1730000  72.2110000  59.6030000  12.7840000  71.8600000  57.5820000
  10.3350000  69.8190000  64.2560000  12.5580000  70.8790000  64.0280000
  15.1570000  72.4310000  61.3670000  14.3520000  71.7540000  63.5700000
  15.1690000  72.7970000  58.7400000  11.9840000  71.5540000  57.1700000
  13.7630000  72.4110000  56.8200000  10.5140000  69.7180000  65.6300000
   9.5300000  69.4980000  63.8660000  12.7140000  70.7600000  65.4200000
  14.9710000  72.8940000  57.4040000  15.9780000  73.1210000  59.1150000
  13.6420000  72.4760000  55.8790000   9.5180000  69.1330000  66.4940000
  11.7380000  70.1940000  66.2290000  13.5150000  71.0770000  65.8200000
  15.6390000  73.2860000  56.8550000   9.7160000  69.0350000  67.8290000
   8.7080000  68.8090000  66.1180000  11.9020000  70.0690000  67.6520000
  10.9230000  69.5180000  68.4140000   9.0470000  68.6440000  68.3790000
  12.7020000  70.3750000  68.0640000  11.0440000  69.4530000  69.3540000
  12.6300000  74.3270000  75.2620000  12.4730000  74.4470000  73.8710000
  11.6490000  73.7700000  76.0930000  13.8610000  74.8150000  75.8670000
  11.6720000  74.1290000  73.4700000  13.4490000  75.0120000  73.0610000
  10.8350000  73.4530000  75.7200000  11.8280000  73.6680000  77.4800000
  14.8530000  75.3870000  75.0350000  14.0400000  74.7130000  77.2540000
  14.6740000  75.4880000  73.6600000  13.2860000  75.1370000  71.6380000
  10.8360000  73.0960000  78.3130000  13.0590000  74.1560000  78.0850000
  15.6580000  75.7080000  75.4240000  14.8540000  75.0300000  77.6270000
  15.6700000  76.0740000  72.7970000  12.4860000  74.8310000  71.2270000
  14.2650000  75.6880000  70.8770000  11.0150000  72.9950000  79.6870000
  10.0310000  72.7750000  77.9230000  13.2150000  74.0360000  79.4760000
  15.4720000  76.1710000  71.4610000  16.4800000  76.3980000  73.1720000
  14.1430000  75.7530000  69.9360000  10.0190000  72.4090000  80.5500000
  12.2390000  73.4710000  80.2860000  14.0170000  74.3540000  79.8770000
  16.1400000  76.5630000  70.9120000  10.2170000  72.3120000  81.8860000
   9.2090000  72.0850000  80.1750000  12.4030000  73.3460000  81.7090000
  11.4240000  72.7950000  82.4710000   9.5480000  71.9200000  82.4350000
  13.2030000  73.6520000  82.1210000  11.5450000  72.7300000  83.4110000
  13.1310000  77.6040000  89.3190000  12.9750000  77.7230000  87.9270000
  12.1500000  77.0470000  90.1500000  14.3620000  78.0920000  89.9230000
  12.1730000  77.4060000  87.5270000  13.9510000  78.2890000  87.1180000
  11.3360000  76.7290000  89.7770000  12.3290000  76.9450000  91.5370000
  15.3540000  78.6640000  89.0910000  14.5410000  77.9900000  91.3110000
  15.1750000  78.7650000  87.7170000  13.7870000  78.4140000  85.6950000
  11.3370000  76.3730000  92.3690000  13.5600000  77.4330000  92.1420000
  16.1590000  78.9850000  89.4810000  15.3550000  78.3070000  91.6830000
  16.1710000  79.3500000  86.8530000  12.9870000  78.1080000  85.2830000
  14.7660000  78.9650000  84.9330000  11.5160000  76.2720000  93.7440000
  10.5320000  76.0520000  91.9800000  13.7170000  77.3130000  93.5330000
  15.9730000  79.4480000  85.5180000  16.9810000  79.6740000  87.2290000
  14.6450000  79.0300000  83.9930000  10.5200000  75.6860000  94.6070000
  12.7410000  76.7480000  94.3430000  14.5180000  77.6310000  93.9340000
  16.6420000  79.8390000  84.9680000  10.7180000  75.5890000  95.9430000
   9.7100000  75.3620000  94.2320000  12.9050000  76.6230000  95.7650000
  11.9260000  76.0720000  96.5270000  10.0500000  75.1970000  96.4920000
  13.7040000  76.9290000  96.1770000  12.0470000  76.0070000  97.4680000
  12.2910000  72.0040000  35.9140000  12.4480000  71.8850000  37.3060000
  13.2720000  72.5610000  35.0840000  11.0600000  71.5160000  35.3100000
  13.2490000  72.2020000  37.7070000  11.4720000  71.3190000  38.1160000
  14.0860000  72.8780000  35.4560000  13.0930000  72.6630000  33.6960000
  10.0690000  70.9440000  36.1420000  10.8810000  71.6180000  33.9230000
  10.2470000  70.8430000  37.5170000  11.6360000  71.1940000  39.5380000
  14.0850000  73.2350000  32.8640000  11.8620000  72.1750000  33.0920000
   9.2630000  70.6230000  35.7530000  10.0680000  71.3010000  33.5500000
   9.2510000  70.2570000  38.3800000  12.4350000  71.5000000  39.9500000
  10.6570000  70.6430000  40.3000000  13.9060000  73.3360000  31.4890000
  14.8900000  73.5560000  33.2530000  11.7060000  72.2950000  31.7000000
   9.4490000  70.1600000  39.7150000   8.4410000  69.9330000  38.0050000
  10.7780000  70.5780000  41.2410000  14.9020000  73.9220000  30.6260000
  12.6820000  72.8600000  30.8900000  10.9040000  71.9770000  31.3000000
   8.7810000  69.7690000  40.2650000  14.7040000  74.0190000  29.2910000
  15.7120000  74.2460000  31.0020000  12.5180000  72.9850000  29.4680000
  13.4970000  73.5360000  28.7060000  15.3730000  74.4110000  28.7410000
  11.7180000  72.6790000  29.0560000  13.3760000  73.6010000  27.7660000
  12.7930000  75.2810000  49.9710000  12.9490000  75.1610000  51.3630000
  13.7740000  75.8380000  49.1400000  11.5620000  74.7930000  49.3670000
  13.7500000  75.4790000  51.7630000  11.9730000  74.5960000  52.1730000
  14.5870000  76.1550000  49.5130000  13.5940000  75.9400000  47.7530000
  10.5700000  74.2210000  50.1990000  11.3820000  74.8950000  47.9790000
  10.7480000  74.1200000  51.5740000  12.1370000  74.4710000  53.5950000
  14.5860000  76.5120000  46.9210000  12.3630000  75.4520000  47.1490000
   9.7640000  73.9000000  49.8100000  10.5690000  74.5780000  47.6070000
   9.7520000  73.5340000  52.4370000  12.9370000  74.7770000  54.0070000
  11.1580000  73.9200000  54.3570000  14.4080000  76.6130000  45.5460000
  15.3920000  76.8330000  47.3100000  12.2070000  75.5720000  45.7570000
   9.9500000  73.4370000  53.7720000   8.9430000  73.2100000  52.0610000
  11.2790000  73.8550000  55.2970000  15.4040000  77.1990000  44.6830000
  13.1830000  76.1370000  44.9470000  11.4060000  75.2540000  45.3560000
   9.2820000  73.0450000  54.3220000  15.2060000  77.2960000  43.3480000
  16.2130000  77.5230000  45.0580000  13.0190000  76.2620000  43.5250000
  13.9980000  76.8130000  42.7630000  15.8740000  77.6870000  42.7980000
  12.2190000  75.9560000  43.1130000  13.8770000  76.8780000  41.8220000
  13.2940000  78.5580000  64.0280000  13.4500000  78.4380000  65.4200000
  14.2750000  79.1150000  63.1970000  12.0630000  78.0700000  63.4240000
  14.2520000  78.7560000  65.8200000  12.4740000  77.8730000  66.2290000
  15.0880000  79.4320000  63.5700000  14.0960000  79.2170000  61.8100000
  11.0710000  77.4980000  64.2560000  11.8840000  78.1720000  62.0360000
  11.2500000  77.3970000  65.6300000  12.6380000  77.7480000  67.6520000
  15.0870000  79.7880000  60.9780000  12.8650000  78.7290000  61.2050000
  10.2660000  77.1770000  63.8660000  11.0700000  77.8540000  61.6640000
  10.2540000  76.8110000  66.4940000  13.4380000  78.0540000  68.0640000
  11.6590000  77.1970000  68.4140000  14.9090000  79.8900000  59.6030000
  15.8930000  80.1100000  61.3670000  12.7080000  78.8480000  59.8140000
  10.4520000  76.7140000  67.8290000   9.4440000  76.4870000  66.1180000
  11.7800000  77.1320000  69.3540000  15.9050000  80.4750000  58.7400000
  13.6840000  79.4140000  59.0040000  11.9070000  78.5310000  59.4130000
   9.7830000  76.3220000  68.3790000  15.7070000  80.5730000  57.4040000
  16.7150000  80.7990000  59.1150000  13.5200000  79.5390000  57.5820000
  14.4990000  80.0900000  56.8200000  16.3750000  80.9640000  56.8550000
  12.7210000  79.2320000  57.1700000  14.3780000  80.1550000  55.8790000
  13.8670000  85.2830000  89.3190000  13.7110000  85.4020000  87.9270000
  12.8860000  84.7250000  90.1500000  15.0980000  85.7710000  89.9230000
  12.9090000  85.0840000  87.5270000  14.6870000  85.9670000  87.1180000
  12.0730000  84.4080000  89.7770000  13.0650000  84.6230000  91.5370000
  16.0900000  86.3420000  89.0910000  15.2770000  85.6690000  91.3110000
  15.9110000  86.4430000  87.7170000  14.5230000  86.0930000  85.6950000
  12.0740000  84.0520000  92.3690000  14.2960000  85.1110000  92.1420000
  16.8950000  86.6630000  89.4810000  16.0910000  85.9860000  91.6830000
  16.9070000  87.0290000  86.8530000  13.7230000  85.7860000  85.2830000
  15.5020000  86.6440000  84.9330000  12.2520000  83.9510000  93.7440000
  11.2680000  83.7310000  91.9800000  14.4530000  84.9920000  93.5330000
  16.7090000  87.1260000  85.5180000  17.7170000  87.3530000  87.2290000
  15.3810000  86.7090000  83.9930000  11.2560000  83.3650000  94.6070000
  13.4770000  84.4270000  94.3430000  15.2540000  85.3090000  93.9340000
  17.3780000  87.5180000  84.9680000  11.4540000  83.2680000  95.9430000
  10.4460000  83.0410000  94.2320000  13.6410000  84.3010000  95.7650000
  12.6620000  83.7500000  96.5270000  10.7860000  82.8760000  96.4920000
  14.4400000  84.6080000  96.1770000  12.7830000  83.6850000  97.4680000
  11.7900000  68.7270000  21.8580000  11.9460000  68.6080000  23.2490000
  12.7710000  69.2840000  21.0270000  10.5590000  68.2390000  21.2530000
  12.7480000  68.9250000  23.6500000  10.9710000  68.0420000  24.0590000
  13.5850000  69.6020000  21.3990000  12.5920000  69.3860000  19.6390000
   9.5670000  67.6680000  22.0850000  10.3800000  68.3410000  19.8660000
   9.7460000  67.5670000  23.4600000  11.1340000  67.9170000  25.4810000
  13.5840000  69.9580000  18.8070000  11.3610000  68.8980000  19.0350000
   8.7620000  67.3460000  21.6960000   9.5660000  68.0240000  19.4930000
   8.7500000  66.9810000  24.3230000  11.9340000  68.2240000  25.8930000
  10.1550000  67.3660000  26.2430000  13.4050000  70.0590000  17.4320000
  14.3890000  70.2790000  19.1970000  11.2050000  69.0180000  17.6430000
   8.9480000  66.8830000  25.6590000   7.9400000  66.6570000  23.9480000
  10.2760000  67.3010000  27.1840000  14.4010000  70.6450000  16.5690000
  12.1800000  69.5830000  16.8340000  10.4030000  68.7000000  17.2430000
   8.2790000  66.4920000  26.2080000  14.2030000  70.7420000  15.2340000
  15.2110000  70.9690000  16.9450000  12.0170000  69.7080000  15.4110000
  12.9960000  70.2590000  14.6490000  14.8710000  71.1340000  14.6840000
  11.2170000  69.4020000  14.9990000  12.8740000  70.3240000  13.7090000
  13.7950000  81.8340000  78.0850000  13.9510000  81.7150000  79.4760000
  14.7760000  82.3920000  77.2540000  12.5640000  81.3460000  77.4800000
  14.7530000  82.0330000  79.8770000  12.9760000  81.1500000  80.2860000
  15.5900000  82.7090000  77.6270000  14.5970000  82.4940000  75.8670000
  11.5720000  80.7750000  78.3130000  12.3850000  81.4480000  76.0930000
  11.7510000  80.6740000  79.6870000  13.1390000  81.0240000  81.7090000
  15.5890000  83.0650000  75.0350000  13.3660000  82.0060000  75.2620000
  10.7670000  80.4540000  77.9230000  11.5710000  81.1310000  75.7200000
  10.7550000  80.0880000  80.5500000  13.9390000  81.3310000  82.1210000
  12.1600000  80.4730000  82.4710000  15.4100000  83.1660000  73.6600000
  16.3940000  83.3860000  75.4240000  13.2100000  82.1250000  73.8710000
  10.9530000  79.9910000  81.8860000   9.9450000  79.7640000  80.1750000
  12.2820000  80.4090000  83.4110000  16.4060000  83.7520000  72.7970000
  14.1850000  82.6900000  73.0610000  12.4080000  81.8080000  73.4700000
  10.2850000  79.5990000  82.4350000  16.2080000  83.8490000  71.4610000
  17.2160000  84.0760000  73.1720000  14.0220000  82.8160000  71.6380000
  15.0010000  83.3670000  70.8770000  16.8770000  84.2410000  70.9120000
  13.2220000  82.5090000  71.2270000  14.8800000  83.4320000  69.9360000
  47.6800000  78.5040000  49.7840000  47.8500000  77.8270000  51.0090000
  48.6550000  78.4990000  48.7810000  46.4360000  79.2330000  49.5520000
  48.6510000  77.3390000  51.1600000  46.8780000  77.8540000  51.9980000
  49.4690000  78.0260000  48.9110000  48.4850000  79.1790000  47.5670000
  45.4510000  79.2380000  50.5710000  46.2650000  79.9130000  48.3390000
  45.6470000  78.5780000  51.7720000  47.0490000  77.1940000  53.2520000
  49.4690000  79.1740000  46.5480000  47.2410000  79.9080000  47.3360000
  44.6370000  79.7050000  50.4270000  45.4510000  80.3850000  48.2080000
  44.6630000  78.5950000  52.8090000  47.8520000  76.7130000  53.4180000
  46.0920000  77.2370000  54.2110000  49.2740000  79.8330000  45.3480000
  50.2840000  78.7060000  46.6930000  47.0700000  80.5850000  46.1110000
  44.8740000  77.9520000  53.9820000  43.8480000  79.0640000  52.6730000
  46.2300000  76.7920000  55.0390000  50.2580000  79.8160000  44.3110000
  48.0430000  80.5570000  45.1220000  46.2690000  81.0720000  45.9590000
  44.2070000  77.9750000  54.6580000  50.0470000  80.4600000  43.1380000
  51.0730000  79.3470000  44.4470000  47.8710000  81.2170000  43.8680000
  48.8290000  81.1740000  42.9090000  50.7130000  80.4360000  42.4620000
  47.0680000  81.6980000  43.7020000  48.6900000  81.6190000  42.0810000
  12.5260000  76.4060000  21.8580000  12.6830000  76.2860000  23.2490000
  13.5070000  76.9630000  21.0270000  11.2950000  75.9180000  21.2530000
  13.4840000  76.6040000  23.6500000  11.7070000  75.7210000  24.0590000
  14.3210000  77.2800000  21.3990000  13.3280000  77.0650000  19.6390000
  10.3030000  75.3460000  22.0850000  11.1160000  76.0200000  19.8660000
  10.4820000  75.2450000  23.4600000  11.8700000  75.5960000  25.4810000
  14.3200000  77.6370000  18.8070000  12.0970000  76.5770000  19.0350000
   9.4980000  75.0250000  21.6960000  10.3020000  75.7030000  19.4930000
   9.4860000  74.6590000  24.3230000  12.6700000  75.9020000  25.8930000
  10.8910000  75.0450000  26.2430000  14.1410000  77.7380000  17.4320000
  15.1250000  77.9580000  19.1970000  11.9410000  76.6960000  17.6430000
   9.6840000  74.5620000  25.6590000   8.6760000  74.3350000  23.9480000
  11.0130000  74.9800000  27.1840000  15.1370000  78.3240000  16.5690000
  12.9170000  77.2620000  16.8340000  11.1390000  76.3790000  17.2430000
   9.0160000  74.1700000  26.2080000  14.9390000  78.4210000  15.2340000
  15.9470000  78.6470000  16.9450000  12.7530000  77.3870000  15.4110000
  13.7320000  77.9380000  14.6490000  15.6080000  78.8120000  14.6840000
  11.9530000  77.0810000  14.9990000  13.6110000  78.0030000  13.7090000
  13.0270000  79.6830000  35.9140000  13.1840000  79.5630000  37.3060000
  14.0090000  80.2400000  35.0840000  11.7970000  79.1950000  35.3100000
  13.9850000  79.8810000  37.7070000  12.2080000  78.9980000  38.1160000
  14.8220000  80.5570000  35.4560000  13.8290000  80.3420000  33.6960000
  10.8050000  78.6230000  36.1420000  11.6170000  79.2970000  33.9230000
  10.9830000  78.5220000  37.5170000  12.3720000  78.8730000  39.5380000
  14.8210000  80.9130000  32.8640000  12.5980000  79.8540000  33.0920000
   9.9990000  78.3020000  35.7530000  10.8040000  78.9790000  33.5500000
   9.9870000  77.9360000  38.3800000  13.1720000  79.1790000  39.9500000
  11.3930000  78.3210000  40.3000000  14.6420000  81.0140000  31.4890000
  15.6260000  81.2350000  33.2530000  12.4420000  79.9730000  31.7000000
  10.1850000  77.8390000  39.7150000   9.1780000  77.6120000  38.0050000
  11.5140000  78.2570000  41.2410000  15.6380000  81.6000000  30.6260000
  13.4180000  80.5390000  30.8900000  11.6410000  79.6560000  31.3000000
   9.5170000  77.4470000  40.2650000  15.4400000  81.6980000  29.2910000
  16.4480000  81.9240000  31.0020000  13.2540000  80.6640000  29.4680000
  14.2330000  81.2150000  28.7060000  16.1090000  82.0890000  28.7410000
  12.4540000  80.3570000  29.0560000  14.1120000  81.2800000  27.7660000
  13.1000000  83.1310000  47.1490000  12.9430000  83.2500000  45.7570000
  12.1180000  82.5730000  47.9790000  14.3300000  83.6190000  47.7530000
  12.1420000  82.9320000  45.3560000  13.9190000  83.8150000  44.9470000
  11.3050000  82.2560000  47.6070000  12.2980000  82.4710000  49.3670000
  15.3220000  84.1900000  46.9210000  14.5100000  83.5170000  49.1400000
  15.1440000  84.2910000  45.5460000  13.7550000  83.9410000  43.5250000
  11.3060000  81.9000000  50.1990000  13.5290000  82.9590000  49.9710000
  16.1280000  84.5110000  47.3100000  15.3230000  83.8340000  49.5130000
  16.1400000  84.8770000  44.6830000  12.9550000  83.6340000  43.1130000
  14.7340000  84.4920000  42.7630000  11.4850000  81.7990000  51.5740000
  10.5010000  81.5790000  49.8100000  13.6850000  82.8400000  51.3630000
  15.9420000  84.9740000  43.3480000  16.9490000  85.2010000  45.0580000
  14.6130000  84.5570000  41.8220000  10.4890000  81.2130000  52.4370000
  12.7090000  82.2750000  52.1730000  14.4860000  83.1580000  51.7630000
  16.6100000  85.3660000  42.7980000  10.6870000  81.1160000  53.7720000
   9.6790000  80.8890000  52.0610000  12.8730000  82.1490000  53.5950000
  11.8940000  81.5980000  54.3570000  10.0180000  80.7240000  54.3220000
  13.6730000  82.4560000  54.0070000  12.0150000  81.5330000  55.2970000
  13.6010000  86.4080000  61.2050000  13.4440000  86.5270000  59.8140000
  12.6200000  85.8500000  62.0360000  14.8320000  86.8950000  61.8100000
  12.6430000  86.2090000  59.4130000  14.4200000  87.0920000  59.0040000
  11.8060000  85.5330000  61.6640000  12.7990000  85.7480000  63.4240000
  15.8240000  87.4670000  60.9780000  15.0110000  86.7940000  63.1970000
  15.6450000  87.5680000  59.6030000  14.2570000  87.2170000  57.5820000
  11.8070000  85.1770000  64.2560000  14.0300000  86.2360000  64.0280000
  16.6290000  87.7880000  61.3670000  15.8250000  87.1110000  63.5700000
  16.6410000  88.1540000  58.7400000  13.4570000  86.9110000  57.1700000
  15.2360000  87.7690000  56.8200000  11.9860000  85.0760000  65.6300000
  11.0020000  84.8560000  63.8660000  14.1860000  86.1170000  65.4200000
  16.4430000  88.2510000  57.4040000  17.4510000  88.4780000  59.1150000
  15.1140000  87.8330000  55.8790000  10.9900000  84.4900000  66.4940000
  13.2100000  85.5520000  66.2290000  14.9880000  86.4340000  65.8200000
  17.1110000  88.6430000  56.8550000  11.1880000  84.3930000  67.8290000
  10.1800000  84.1660000  66.1180000  13.3740000  85.4260000  67.6520000
  12.3950000  84.8750000  68.4140000  10.5190000  84.0010000  68.3790000
  14.1740000  85.7330000  68.0640000  12.5160000  84.8100000  69.3540000
  14.6030000  92.9610000  89.3190000  14.4470000  93.0810000  87.9270000
  13.6220000  92.4040000  90.1500000  15.8340000  93.4490000  89.9230000
  13.6460000  92.7630000  87.5270000  15.4230000  93.6460000  87.1180000
  12.8090000  92.0870000  89.7770000  13.8020000  92.3020000  91.5370000
  16.8260000  94.0210000  89.0910000  16.0140000  93.3470000  91.3110000
  16.6470000  94.1220000  87.7170000  15.2590000  93.7710000  85.6950000
  12.8100000  91.7300000  92.3690000  15.0320000  92.7900000  92.1420000
  17.6310000  94.3420000  89.4810000  16.8270000  93.6640000  91.6830000
  17.6430000  94.7080000  86.8530000  14.4590000  93.4650000  85.2830000
  16.2380000  94.3220000  84.9330000  12.9880000  91.6290000  93.7440000
  12.0040000  91.4090000  91.9800000  15.1890000  92.6700000  93.5330000
  17.4450000  94.8050000  85.5180000  18.4530000  95.0320000  87.2290000
  16.1170000  94.3870000  83.9930000  11.9920000  91.0430000  94.6070000
  14.2130000  92.1050000  94.3430000  15.9900000  92.9880000  93.9340000
  18.1140000  95.1970000  84.9680000  12.1900000  90.9460000  95.9430000
  11.1830000  90.7190000  94.2320000  14.3770000  91.9800000  95.7650000
  13.3980000  91.4290000  96.5270000  11.5220000  90.5540000  96.4920000
  15.1770000  92.2860000  96.1770000  13.5190000  91.3640000  97.4680000
  12.8330000  84.2560000  19.0350000  12.6770000  84.3750000  17.6430000
  11.8520000  83.6980000  19.8660000  14.0640000  84.7440000  19.6390000
  11.8750000  84.0570000  17.2430000  13.6530000  84.9400000  16.8340000
  11.0390000  83.3810000  19.4930000  12.0310000  83.5960000  21.2530000
  15.0560000  85.3150000  18.8070000  14.2430000  84.6420000  21.0270000
  14.8770000  85.4160000  17.4320000  13.4890000  85.0660000  15.4110000
  11.0400000  83.0250000  22.0850000  13.2620000  84.0840000  21.8580000
  15.8610000  85.6360000  19.1970000  15.0570000  84.9590000  21.3990000
  15.8730000  86.0020000  16.5690000  12.6890000  84.7590000  14.9990000
  14.4680000  85.6170000  14.6490000  11.2180000  82.9240000  23.4600000
  10.2340000  82.7040000  21.6960000  13.4190000  83.9650000  23.2490000
  15.6750000  86.0990000  15.2340000  16.6830000  86.3260000  16.9450000
  14.3470000  85.6820000  13.7090000  10.2220000  82.3380000  24.3230000
  12.4430000  83.4000000  24.0590000  14.2200000  84.2830000  23.6500000
  16.3440000  86.4910000  14.6840000  10.4200000  82.2410000  25.6590000
   9.4120000  82.0140000  23.9480000  12.6070000  83.2740000  25.4810000
  11.6280000  82.7230000  26.2430000   9.7520000  81.8490000  26.2080000
  13.4060000  83.5810000  25.8930000  11.7490000  82.6580000  27.1840000
  13.3340000  87.5320000  33.0920000  13.1780000  87.6520000  31.7000000
  12.3530000  86.9750000  33.9230000  14.5650000  88.0200000  33.6960000
  12.3770000  87.3340000  31.3000000  14.1540000  88.2170000  30.8900000
  11.5400000  86.6580000  33.5500000  12.5330000  86.8730000  35.3100000
  15.5570000  88.5920000  32.8640000  14.7450000  87.9180000  35.0840000
  15.3790000  88.6930000  31.4890000  13.9900000  88.3420000  29.4680000
  11.5410000  86.3020000  36.1420000  13.7640000  87.3610000  35.9140000
  16.3630000  88.9130000  33.2530000  15.5580000  88.2360000  35.4560000
  16.3750000  89.2790000  30.6260000  13.1900000  88.0360000  29.0560000
  14.9690000  88.8940000  28.7060000  11.7190000  86.2010000  37.5170000
  10.7350000  85.9800000  35.7530000  13.9200000  87.2420000  37.3060000
  16.1770000  89.3760000  29.2910000  17.1840000  89.6030000  31.0020000
  14.8480000  88.9580000  27.7660000  10.7230000  85.6150000  38.3800000
  12.9440000  86.6760000  38.1160000  14.7210000  87.5590000  37.7070000
  16.8450000  89.7680000  28.7410000  10.9210000  85.5170000  39.7150000
   9.9140000  85.2910000  38.0050000  13.1080000  86.5510000  39.5380000
  12.1290000  86.0000000  40.3000000  10.2530000  85.1260000  40.2650000
  13.9080000  86.8580000  39.9500000  12.2500000  85.9350000  41.2410000
  13.8360000  90.8090000  47.1490000  13.6790000  90.9290000  45.7570000
  12.8550000  90.2520000  47.9790000  15.0670000  91.2970000  47.7530000
  12.8780000  90.6110000  45.3560000  14.6550000  91.4940000  44.9470000
  12.0410000  89.9350000  47.6070000  13.0340000  90.1500000  49.3670000
  16.0580000  91.8690000  46.9210000  15.2460000  91.1950000  49.1400000
  15.8800000  91.9700000  45.5460000  14.4910000  91.6190000  43.5250000
  12.0420000  89.5780000  50.1990000  14.2650000  90.6380000  49.9710000
  16.8640000  92.1900000  47.3100000  16.0590000  91.5120000  49.5130000
  16.8760000  92.5560000  44.6830000  13.6920000  91.3130000  43.1130000
  15.4700000  92.1700000  42.7630000  12.2210000  89.4770000  51.5740000
  11.2370000  89.2570000  49.8100000  14.4210000  90.5190000  51.3630000
  16.6780000  92.6530000  43.3480000  17.6860000  92.8800000  45.0580000
  15.3490000  92.2350000  41.8220000  11.2250000  88.8920000  52.4370000
  13.4450000  89.9530000  52.1730000  15.2230000  90.8360000  51.7630000
  17.3460000  93.0450000  42.7980000  11.4230000  88.7940000  53.7720000
  10.4150000  88.5680000  52.0610000  13.6090000  89.8280000  53.5950000
  12.6300000  89.2770000  54.3570000  10.7540000  88.4030000  54.3220000
  14.4090000  90.1340000  54.0070000  12.7510000  89.2120000  55.2970000
  14.7660000  93.9150000  64.0280000  14.9220000  93.7950000  65.4200000
  15.7470000  94.4720000  63.1970000  13.5350000  93.4270000  63.4240000
  15.7240000  94.1130000  65.8200000  13.9470000  93.2300000  66.2290000
  16.5610000  94.7890000  63.5700000  15.5680000  94.5740000  61.8100000
  12.5430000  92.8550000  64.2560000  13.3560000  93.5290000  62.0360000
  12.7220000  92.7540000  65.6300000  14.1100000  93.1050000  67.6520000
  16.5600000  95.1460000  60.9780000  14.3370000  94.0860000  61.2050000
  11.7380000  92.5340000  63.8660000  12.5420000  93.2120000  61.6640000
  11.7260000  92.1680000  66.4940000  14.9100000  93.4110000  68.0640000
  13.1310000  92.5540000  68.4140000  16.3810000  95.2470000  59.6030000
  17.3650000  95.4670000  61.3670000  14.1810000  94.2060000  59.8140000
  11.9240000  92.0710000  67.8290000  10.9160000  91.8440000  66.1180000
  13.2530000  92.4890000  69.3540000  17.3770000  95.8330000  58.7400000
  15.1560000  94.7710000  59.0040000  13.3790000  93.8880000  59.4130000
  11.2550000  91.6790000  68.3790000  17.1790000  95.9300000  57.4040000
  18.1870000  96.1570000  59.1150000  14.9930000  94.8960000  57.5820000
  15.9720000  95.4470000  56.8200000  17.8480000  96.3220000  56.8550000
  14.1930000  94.5900000  57.1700000  15.8500000  95.5120000  55.8790000
  15.2670000  97.1920000  78.0850000  15.4240000  97.0720000  79.4760000
  16.2480000  97.7490000  77.2540000  14.0360000  96.7040000  77.4800000
  16.2250000  97.3900000  79.8770000  14.4480000  96.5070000  80.2860000
  17.0620000  98.0660000  77.6270000  16.0690000  97.8510000  75.8670000
  13.0450000  96.1320000  78.3130000  13.8570000  96.8060000  76.0930000
  13.2230000  96.0310000  79.6870000  14.6120000  96.3820000  81.7090000
  17.0610000  98.4220000  75.0350000  14.8380000  97.3630000  75.2620000
  12.2390000  95.8110000  77.9230000  13.0440000  96.4880000  75.7200000
  12.2270000  95.4450000  80.5500000  15.4110000  96.6880000  82.1210000
  13.6330000  95.8310000  82.4710000  16.8820000  98.5240000  73.6600000
  17.8660000  98.7440000  75.4240000  14.6820000  97.4820000  73.8710000
  12.4250000  95.3480000  81.8860000  11.4170000  95.1210000  80.1750000
  13.7540000  95.7660000  83.4110000  17.8780000  99.1090000  72.7970000
  15.6580000  98.0480000  73.0610000  13.8800000  97.1650000  73.4700000
  11.7570000  94.9560000  82.4350000  17.6800000  99.2070000  71.4610000
  18.6880000  99.4330000  73.1720000  15.4940000  98.1730000  71.6380000
  16.4730000  98.7240000  70.8770000  18.3490000  99.5980000  70.9120000
  14.6940000  97.8670000  71.2270000  16.3520000  98.7890000  69.9360000
  15.3400000 100.6400000  89.3190000  15.1830000 100.7590000  87.9270000
  14.3580000 100.0820000  90.1500000  16.5700000 101.1280000  89.9230000
  14.3820000 100.4420000  87.5270000  16.1590000 101.3240000  87.1180000
  13.5450000  99.7650000  89.7770000  14.5380000  99.9810000  91.5370000
  17.5620000 101.6990000  89.0910000  16.7500000 101.0260000  91.3110000
  17.3840000 101.8000000  87.7170000  15.9950000 101.4500000  85.6950000
  13.5460000  99.4090000  92.3690000  15.7690000 100.4680000  92.1420000
  18.3680000 102.0200000  89.4810000  17.5630000 101.3430000  91.6830000
  18.3800000 102.3860000  86.8530000  15.1950000 101.1430000  85.2830000
  16.9740000 102.0010000  84.9330000  13.7240000  99.3080000  93.7440000
  12.7400000  99.0880000  91.9800000  15.9250000 100.3490000  93.5330000
  18.1820000 102.4830000  85.5180000  19.1890000 102.7100000  87.2290000
  16.8530000 102.0660000  83.9930000  12.7280000  98.7220000  94.6070000
  14.9490000  99.7840000  94.3430000  16.7260000 100.6670000  93.9340000
  18.8500000 102.8750000  84.9680000  12.9260000  98.6250000  95.9430000
  11.9190000  98.3980000  94.2320000  15.1130000  99.6590000  95.7650000
  14.1340000  99.1070000  96.5270000  12.2580000  98.2330000  96.4920000
  15.9130000  99.9650000  96.1770000  14.2550000  99.0430000  97.4680000
   7.6080000  27.0570000   7.8010000   7.7650000  26.9380000   9.1920000
   8.5890000  27.6150000   6.9700000   6.3770000  26.5690000   7.1960000
   8.5660000  27.2550000   9.5930000   6.7890000  26.3730000  10.0020000
   9.4030000  27.9320000   7.3430000   8.4100000  27.7170000   5.5830000
   5.3850000  25.9980000   8.0280000   6.1980000  26.6710000   5.8090000
   5.5640000  25.8970000   9.4030000   6.9520000  26.2470000  11.4250000
   9.4020000  28.2880000   4.7500000   7.1790000  27.2290000   4.9780000
   4.5800000  25.6770000   7.6390000   5.3840000  26.3540000   5.4360000
   4.5680000  25.3110000  10.2660000   7.7520000  26.5540000  11.8360000
   5.9740000  25.6960000  12.1860000   9.2230000  28.3890000   3.3760000
  10.2070000  28.6090000   5.1400000   7.0230000  27.3480000   3.5870000
   4.7660000  25.2140000  11.6020000   3.7580000  24.9870000   9.8910000
   6.0950000  25.6310000  13.1270000  10.2190000  28.9750000   2.5130000
   7.9990000  27.9130000   2.7770000   6.2210000  27.0300000   3.1860000
   4.0980000  24.8220000  12.1510000  10.0210000  29.0720000   1.1770000
  11.0290000  29.2990000   2.8880000   7.8350000  28.0390000   1.3540000
   8.8140000  28.5900000   0.5920000  10.6900000  29.4640000   0.6280000
   7.0350000  27.7320000   0.9420000   8.6930000  28.6550000  -0.3480000
   7.9150000  34.9070000   4.9780000   7.7590000  35.0270000   3.5870000
   6.9340000  34.3500000   5.8090000   9.1460000  35.3950000   5.5830000
   6.9570000  34.7090000   3.1860000   8.7350000  35.5920000   2.7770000
   6.1210000  34.0330000   5.4360000   7.1130000  34.2480000   7.1960000
  10.1380000  35.9670000   4.7500000   9.3250000  35.2930000   6.9700000
   9.9590000  36.0680000   3.3760000   8.5710000  35.7170000   1.3540000
   6.1220000  33.6760000   8.0280000   8.3440000  34.7360000   7.8010000
  10.9430000  36.2880000   5.1400000  10.1390000  35.6100000   7.3430000
  10.9550000  36.6540000   2.5130000   7.7710000  35.4110000   0.9420000
   9.5500000  36.2680000   0.5920000   6.3000000  33.5750000   9.4030000
   5.3160000  33.3550000   7.6390000   8.5010000  34.6160000   9.1920000
  10.7570000  36.7510000   1.1770000  11.7650000  36.9780000   2.8880000
   9.4290000  36.3330000  -0.3480000   5.3040000  32.9890000  10.2660000
   7.5250000  34.0510000  10.0020000   9.3020000  34.9340000   9.5930000
  11.4260000  37.1430000   0.6280000   5.5020000  32.8920000  11.6020000
   4.4940000  32.6650000   9.8910000   7.6890000  33.9260000  11.4250000
   6.7100000  33.3750000  12.1860000   4.8340000  32.5010000  12.1510000
   8.4880000  34.2320000  11.8360000   6.8310000  33.3100000  13.1270000
  47.7100000  88.7110000  19.2220000  47.5400000  89.3880000  17.9980000
  46.7350000  88.7160000  20.2260000  48.9550000  87.9820000  19.4540000
  46.7390000  89.8760000  17.8460000  48.5130000  89.3610000  17.0080000
  45.9210000  89.1890000  20.0950000  46.9050000  88.0360000  21.4390000
  49.9390000  87.9770000  18.4350000  49.1250000  87.3020000  20.6670000
  49.7430000  88.6370000  17.2340000  48.3410000  90.0210000  15.7540000
  45.9210000  88.0410000  22.4580000  48.1490000  87.3070000  21.6710000
  50.7530000  87.5100000  18.5800000  49.9390000  86.8300000  20.7980000
  50.7280000  88.6200000  16.1970000  47.5380000  90.5020000  15.5880000
  49.2980000  89.9780000  14.7950000  46.1170000  87.3820000  23.6580000
  45.1070000  88.5090000  22.3130000  48.3200000  86.6300000  22.8950000
  50.5160000  89.2630000  15.0250000  51.5420000  88.1510000  16.3330000
  49.1600000  90.4230000  13.9670000  45.1320000  87.3990000  24.6960000
  47.3470000  86.6580000  23.8850000  49.1210000  86.1430000  23.0470000
  51.1830000  89.2400000  14.3480000  45.3440000  86.7550000  25.8680000
  44.3180000  87.8680000  24.5590000  47.5190000  85.9980000  25.1380000
  46.5610000  86.0410000  26.0970000  44.6770000  86.7790000  26.5440000
  48.3220000  85.5170000  25.3040000  46.7000000  85.5960000  26.9250000
  50.1540000 100.4150000  77.8980000  50.3250000  99.7380000  79.1220000
  51.1300000 100.4090000  76.8940000  48.9100000 101.1440000  77.6660000
  51.1260000  99.2500000  79.2740000  49.3520000  99.7650000  80.1120000
  51.9440000  99.9370000  77.0250000  50.9600000 101.0900000  75.6810000
  47.9260000 101.1490000  78.6850000  48.7400000 101.8240000  76.4530000
  48.1220000 100.4890000  79.8860000  49.5240000  99.1050000  81.3660000
  51.9440000 101.0850000  74.6620000  49.7160000 101.8190000  75.4490000
  47.1120000 101.6160000  78.5400000  47.9260000 102.2960000  76.3220000
  47.1370000 100.5060000  80.9230000  50.3270000  98.6240000  81.5320000
  48.5660000  99.1480000  82.3240000  51.7480000 101.7440000  73.4620000
  52.7580000 100.6170000  74.8070000  49.5450000 102.4950000  74.2250000
  47.3490000  99.8630000  82.0950000  46.3230000 100.9750000  80.7870000
  48.7050000  98.7030000  83.1520000  52.7330000 101.7270000  72.4240000
  50.5180000 102.4680000  73.2350000  48.7440000 102.9830000  74.0730000
  46.6820000  99.8860000  82.7710000  52.5210000 102.3710000  71.2520000
  53.5470000 101.2580000  72.5610000  50.3460000 103.1280000  71.9810000
  51.3040000 103.0850000  71.0230000  53.1880000 102.3470000  70.5760000
  49.5430000 103.6090000  71.8150000  51.1650000 103.5300000  70.1950000
  48.6510000  90.5840000  35.7270000  48.8210000  89.9070000  36.9520000
  49.6260000  90.5790000  34.7240000  47.4070000  91.3130000  35.4960000
  49.6220000  89.4200000  37.1040000  47.8490000  89.9350000  37.9410000
  50.4400000  90.1060000  34.8550000  49.4560000  91.2590000  33.5110000
  46.4220000  91.3180000  36.5150000  47.2360000  91.9930000  34.2820000
  46.6180000  90.6590000  37.7150000  48.0200000  89.2750000  39.1950000
  50.4400000  91.2540000  32.4920000  48.2120000  91.9880000  33.2790000
  45.6080000  91.7860000  36.3700000  46.4220000  92.4660000  34.1520000
  45.6340000  90.6760000  38.7520000  48.8230000  88.7940000  39.3610000
  47.0630000  89.3180000  40.1540000  50.2450000  91.9130000  31.2910000
  51.2540000  90.7860000  32.6360000  48.0410000  92.6650000  32.0540000
  45.8450000  90.0320000  39.9250000  44.8190000  91.1450000  38.6160000
  47.2010000  88.8730000  40.9820000  51.2290000  91.8960000  30.2540000
  49.0140000  92.6380000  31.0650000  47.2400000  93.1520000  31.9030000
  45.1780000  90.0550000  40.6010000  51.0180000  92.5400000  29.0810000
  52.0430000  91.4280000  30.3900000  48.8420000  93.2980000  29.8110000
  49.8000000  93.2540000  28.8520000  51.6840000  92.5170000  28.4050000
  48.0390000  93.7790000  29.6450000  49.6610000  93.7000000  28.0240000
  48.7130000  95.2650000  47.3360000  48.5430000  95.9420000  46.1110000
  47.7370000  95.2700000  48.3390000  49.9570000  94.5360000  47.5670000
  47.7410000  96.4290000  45.9590000  49.5150000  95.9140000  45.1220000
  46.9240000  95.7430000  48.2080000  47.9080000  94.5900000  49.5520000
  50.9410000  94.5310000  46.5480000  50.1280000  93.8560000  48.7810000
  50.7460000  95.1900000  45.3480000  49.3430000  96.5740000  43.8680000
  46.9230000  94.5950000  50.5710000  49.1520000  93.8610000  49.7840000
  51.7560000  94.0630000  46.6930000  50.9410000  93.3830000  48.9110000
  51.7300000  95.1730000  44.3110000  48.5410000  97.0560000  43.7020000
  50.3010000  96.5310000  42.9090000  47.1190000  93.9360000  51.7720000
  46.1090000  95.0630000  50.4270000  49.3220000  93.1840000  51.0090000
  51.5190000  95.8170000  43.1380000  52.5450000  94.7040000  44.4470000
  50.1630000  96.9760000  42.0810000  46.1350000  93.9530000  52.8090000
  48.3500000  93.2110000  51.9980000  50.1240000  92.6970000  51.1600000
  52.1850000  95.7940000  42.4620000  46.3460000  93.3090000  53.9820000
  45.3200000  94.4210000  52.6730000  48.5220000  92.5520000  53.2520000
  47.5640000  92.5950000  54.2110000  45.6800000  93.3320000  54.6580000
  49.3240000  92.0700000  53.4180000  47.7020000  92.1490000  55.0390000
  47.6480000  84.0300000   7.6140000  47.8190000  83.3540000   8.8380000
  48.6240000  84.0250000   6.6100000  46.4040000  84.7600000   7.3820000
  48.6200000  82.8660000   8.9900000  46.8460000  83.3810000   9.8280000
  49.4380000  83.5530000   6.7410000  48.4530000  84.7050000   5.3970000
  45.4200000  84.7640000   8.4010000  46.2330000  85.4400000   6.1690000
  45.6150000  84.1050000   9.6010000  47.0180000  82.7210000  11.0820000
  49.4380000  84.7000000   4.3780000  47.2090000  85.4340000   5.1650000
  44.6050000  85.2320000   8.2560000  45.4200000  85.9120000   6.0380000
  44.6310000  84.1220000  10.6390000  47.8200000  82.2400000  11.2470000
  46.0600000  82.7640000  12.0400000  49.2420000  85.3600000   3.1770000
  50.2520000  84.2330000   4.5230000  47.0390000  86.1110000   3.9410000
  44.8420000  83.4780000  11.8110000  43.8160000  84.5910000  10.5020000
  46.1990000  82.3190000  12.8680000  50.2260000  85.3430000   2.1400000
  48.0110000  86.0840000   2.9510000  46.2380000  86.5990000   3.7890000
  44.1760000  83.5020000  12.4870000  50.0150000  85.9860000   0.9680000
  51.0410000  84.8740000   2.2760000  47.8400000  86.7440000   1.6970000
  48.7970000  86.7010000   0.7390000  50.6820000  85.9630000   0.2920000
  47.0370000  87.2250000   1.5310000  48.6590000  87.1460000  -0.0890000
   9.0800000  42.4150000   7.8010000   9.2370000  42.2950000   9.1920000
  10.0620000  42.9720000   6.9700000   7.8500000  41.9270000   7.1960000
  10.0380000  42.6130000   9.5930000   8.2610000  41.7300000  10.0020000
  10.8750000  43.2890000   7.3430000   9.8820000  43.0740000   5.5830000
   6.8580000  41.3550000   8.0280000   7.6700000  42.0280000   5.8090000
   7.0360000  41.2540000   9.4030000   8.4250000  41.6050000  11.4250000
  10.8740000  43.6450000   4.7500000   8.6510000  42.5860000   4.9780000
   6.0520000  41.0340000   7.6390000   6.8570000  41.7110000   5.4360000
   6.0400000  40.6680000  10.2660000   9.2250000  41.9110000  11.8360000
   7.4460000  41.0530000  12.1860000  10.6950000  43.7460000   3.3760000
  11.6790000  43.9660000   5.1400000   8.4950000  42.7050000   3.5870000
   6.2380000  40.5710000  11.6020000   5.2310000  40.3440000   9.8910000
   7.5670000  40.9890000  13.1270000  11.6910000  44.3320000   2.5130000
   9.4710000  43.2710000   2.7770000   7.6940000  42.3880000   3.1860000
   5.5700000  40.1790000  12.1510000  11.4930000  44.4290000   1.1770000
  12.5010000  44.6560000   2.8880000   9.3070000  43.3960000   1.3540000
  10.2860000  43.9470000   0.5920000  12.1620000  44.8210000   0.6280000
   8.5070000  43.0890000   0.9420000  10.1650000  44.0120000  -0.3480000
  49.2140000  98.5420000  61.3920000  49.0440000  99.2190000  60.1680000
  48.2380000  98.5470000  62.3960000  50.4580000  97.8130000  61.6240000
  48.2430000  99.7060000  60.0160000  50.0160000  99.1910000  59.1780000
  47.4250000  99.0190000  62.2650000  48.4090000  97.8670000  63.6090000
  51.4430000  97.8080000  60.6050000  50.6290000  97.1330000  62.8370000
  51.2470000  98.4670000  59.4050000  49.8450000  99.8510000  57.9250000
  47.4250000  97.8720000  64.6280000  49.6530000  97.1380000  63.8410000
  52.2570000  97.3400000  60.7500000  51.4430000  96.6600000  62.9680000
  52.2310000  98.4500000  58.3670000  49.0420000 100.3320000  57.7590000
  50.8020000  99.8080000  56.9660000  47.6200000  97.2130000  65.8290000
  46.6100000  98.3390000  64.4830000  49.8240000  96.4610000  65.0650000
  52.0200000  99.0940000  57.1950000  53.0460000  97.9810000  58.5040000
  50.6640000 100.2530000  56.1380000  46.6360000  97.2290000  66.8660000
  48.8510000  96.4880000  66.0550000  50.6250000  95.9730000  65.2170000
  52.6870000  99.0700000  56.5190000  46.8470000  96.5860000  68.0380000
  45.8210000  97.6980000  66.7300000  49.0230000  95.8280000  67.3090000
  48.0650000  95.8710000  68.2680000  46.1810000  96.6090000  68.7150000
  49.8250000  95.3470000  67.4750000  48.2040000  95.4260000  69.0960000
  50.6560000 103.6910000  91.9550000  50.8260000 103.0150000  93.1790000
  51.6310000 103.6860000  90.9510000  49.4120000 104.4210000  91.7230000
  51.6270000 102.5270000  93.3310000  49.8540000 103.0420000  94.1690000
  52.4450000 103.2140000  91.0820000  51.4610000 104.3660000  89.7380000
  48.4270000 104.4250000  92.7420000  49.2410000 105.1010000  90.5100000
  48.6230000 103.7660000  93.9420000  50.0250000 102.3820000  95.4230000
  52.4450000 104.3610000  88.7190000  50.2170000 105.0950000  89.5060000
  47.6130000 104.8930000  92.5970000  48.4270000 105.5730000  90.3790000
  47.6390000 103.7830000  94.9800000  50.8280000 101.9010000  95.5880000
  49.0680000 102.4250000  96.3810000  52.2500000 105.0210000  87.5180000
  53.2600000 103.8940000  88.8640000  50.0460000 105.7720000  88.2820000
  47.8500000 103.1390000  96.1520000  46.8240000 104.2520000  94.8430000
  49.2060000 101.9800000  97.2090000  53.2340000 105.0040000  86.4810000
  51.0190000 105.7450000  87.2920000  49.2450000 106.2600000  88.1300000
  47.1830000 103.1630000  96.8280000  53.0230000 105.6470000  85.3090000
  54.0490000 104.5350000  86.6170000  50.8470000 106.4050000  86.0380000
  51.8050000 106.3620000  85.0800000  53.6890000 105.6240000  84.6320000
  50.0440000 106.8860000  85.8720000  51.6660000 106.8070000  84.2520000
   9.3870000  50.2640000   4.9780000   9.2310000  50.3840000   3.5870000
   8.4060000  49.7070000   5.8090000  10.6180000  50.7520000   5.5830000
   8.4300000  50.0660000   3.1860000  10.2070000  50.9490000   2.7770000
   7.5930000  49.3900000   5.4360000   8.5860000  49.6050000   7.1960000
  11.6100000  51.3240000   4.7500000  10.7980000  50.6500000   6.9700000
  11.4320000  51.4250000   3.3760000  10.0430000  51.0740000   1.3540000
   7.5940000  49.0340000   8.0280000   9.8170000  50.0930000   7.8010000
  12.4160000  51.6450000   5.1400000  11.6110000  50.9680000   7.3430000
  12.4280000  52.0110000   2.5130000   9.2430000  50.7680000   0.9420000
  11.0220000  51.6250000   0.5920000   7.7720000  48.9320000   9.4030000
   6.7880000  48.7120000   7.6390000   9.9730000  49.9740000   9.1920000
  12.2300000  52.1080000   1.1770000  13.2370000  52.3350000   2.8880000
  10.9010000  51.6900000  -0.3480000   6.7760000  48.3470000  10.2660000
   8.9970000  49.4080000  10.0020000  10.7740000  50.2910000   9.5930000
  12.8980000  52.5000000   0.6280000   6.9740000  48.2490000  11.6020000
   5.9670000  48.0230000   9.8910000   9.1610000  49.2830000  11.4250000
   8.1820000  48.7320000  12.1860000   6.3060000  47.8580000  12.1510000
   9.9610000  49.5900000  11.8360000   8.3030000  48.6670000  13.1270000
  10.1240000  57.9430000   4.9780000   9.9670000  58.0620000   3.5870000
   9.1420000  57.3860000   5.8090000  11.3540000  58.4310000   5.5830000
   9.1660000  57.7450000   3.1860000  10.9430000  58.6280000   2.7770000
   8.3290000  57.0680000   5.4360000   9.3220000  57.2840000   7.1960000
  12.3460000  59.0030000   4.7500000  11.5340000  58.3290000   6.9700000
  12.1680000  59.1040000   3.3760000  10.7790000  58.7530000   1.3540000
   8.3300000  56.7120000   8.0280000  10.5530000  57.7720000   7.8010000
  13.1520000  59.3240000   5.1400000  12.3470000  58.6460000   7.3430000
  13.1640000  59.6890000   2.5130000   9.9790000  58.4470000   0.9420000
  11.7580000  59.3040000   0.5920000   8.5090000  56.6110000   9.4030000
   7.5250000  56.3910000   7.6390000  10.7090000  57.6520000   9.1920000
  12.9660000  59.7870000   1.1770000  13.9730000  60.0130000   2.8880000
  11.6370000  59.3690000  -0.3480000   7.5130000  56.0250000  10.2660000
   9.7330000  57.0870000  10.0020000  11.5100000  57.9700000   9.5930000
  13.6340000  60.1780000   0.6280000   7.7110000  55.9280000  11.6020000
   6.7030000  55.7010000   9.8910000   9.8970000  56.9620000  11.4250000
   8.9180000  56.4110000  12.1860000   7.0420000  55.5360000  12.1510000
  10.6970000  57.2680000  11.8360000   9.0390000  56.3460000  13.1270000
  11.2890000  65.4500000   7.8010000  11.4450000  65.3310000   9.1920000
  12.2700000  66.0080000   6.9700000  10.0580000  64.9620000   7.1960000
  12.2470000  65.6480000   9.5930000  10.4690000  64.7660000  10.0020000
  13.0830000  66.3250000   7.3430000  12.0910000  66.1100000   5.5830000
   9.0660000  64.3910000   8.0280000   9.8790000  65.0640000   5.8090000
   9.2450000  64.2900000   9.4030000  10.6330000  64.6400000  11.4250000
  13.0820000  66.6810000   4.7500000  10.8600000  65.6220000   4.9780000
   8.2610000  64.0700000   7.6390000   9.0650000  64.7470000   5.4360000
   8.2490000  63.7040000  10.2660000  11.4330000  64.9470000  11.8360000
   9.6540000  64.0890000  12.1860000  12.9040000  66.7820000   3.3760000
  13.8880000  67.0020000   5.1400000  10.7030000  65.7410000   3.5870000
   8.4470000  63.6070000  11.6020000   7.4390000  63.3800000   9.8910000
   9.7750000  64.0240000  13.1270000  13.9000000  67.3680000   2.5130000
  11.6790000  66.3060000   2.7770000   9.9020000  65.4230000   3.1860000
   7.7780000  63.2150000  12.1510000  13.7020000  67.4650000   1.1770000
  14.7100000  67.6920000   2.8880000  11.5150000  66.4320000   1.3540000
  12.4940000  66.9830000   0.5920000  14.3700000  67.8570000   0.6280000
  10.7160000  66.1250000   0.9420000  12.3730000  67.0480000  -0.3480000
  11.5960000  73.3000000   4.9780000  11.4390000  73.4200000   3.5870000
  10.6150000  72.7430000   5.8090000  12.8270000  73.7880000   5.5830000
  10.6380000  73.1020000   3.1860000  12.4150000  73.9850000   2.7770000
   9.8010000  72.4260000   5.4360000  10.7940000  72.6410000   7.1960000
  13.8190000  74.3600000   4.7500000  13.0060000  73.6860000   6.9700000
  13.6400000  74.4610000   3.3760000  12.2510000  74.1100000   1.3540000
   9.8020000  72.0690000   8.0280000  12.0250000  73.1290000   7.8010000
  14.6240000  74.6810000   5.1400000  13.8200000  74.0030000   7.3430000
  14.6360000  75.0470000   2.5130000  11.4520000  73.8040000   0.9420000
  13.2300000  74.6610000   0.5920000   9.9810000  71.9680000   9.4030000
   8.9970000  71.7480000   7.6390000  12.1810000  73.0090000   9.1920000
  14.4380000  75.1440000   1.1770000  15.4460000  75.3710000   2.8880000
  13.1090000  74.7260000  -0.3480000   8.9850000  71.3820000  10.2660000
  11.2050000  72.4440000  10.0020000  12.9830000  73.3270000   9.5930000
  15.1060000  75.5360000   0.6280000   9.1830000  71.2850000  11.6020000
   8.1750000  71.0580000   9.8910000  11.3690000  72.3190000  11.4250000
  10.3900000  71.7680000  12.1860000   8.5140000  70.8930000  12.1510000
  12.1690000  72.6250000  11.8360000  10.5110000  71.7030000  13.1270000
  12.7610000  80.8070000   7.8010000  12.9170000  80.6880000   9.1920000
  13.7420000  81.3650000   6.9700000  11.5300000  80.3200000   7.1960000
  13.7190000  81.0060000   9.5930000  11.9410000  80.1230000  10.0020000
  14.5560000  81.6820000   7.3430000  13.5630000  81.4670000   5.5830000
  10.5380000  79.7480000   8.0280000  11.3510000  80.4210000   5.8090000
  10.7170000  79.6470000   9.4030000  12.1050000  79.9980000  11.4250000
  14.5550000  82.0380000   4.7500000  12.3320000  80.9790000   4.9780000
   9.7330000  79.4270000   7.6390000  10.5370000  80.1040000   5.4360000
   9.7210000  79.0610000  10.2660000  12.9050000  80.3040000  11.8360000
  11.1260000  79.4460000  12.1860000  14.3760000  82.1390000   3.3760000
  15.3600000  82.3590000   5.1400000  12.1760000  81.0980000   3.5870000
   9.9190000  78.9640000  11.6020000   8.9110000  78.7370000   9.8910000
  11.2470000  79.3820000  13.1270000  15.3720000  82.7250000   2.5130000
  13.1510000  81.6630000   2.7770000  11.3740000  80.7810000   3.1860000
   9.2500000  78.5720000  12.1510000  15.1740000  82.8220000   1.1770000
  16.1820000  83.0490000   2.8880000  12.9880000  81.7890000   1.3540000
  13.9670000  82.3400000   0.5920000  15.8420000  83.2140000   0.6280000
  12.1880000  81.4820000   0.9420000  13.8450000  82.4050000  -0.3480000
  43.1240000   7.4700000  19.0350000  42.9670000   7.5890000  17.6430000
  42.1430000   6.9120000  19.8660000  44.3550000   7.9580000  19.6390000
  42.1660000   7.2710000  17.2430000  43.9430000   8.1540000  16.8340000
  41.3290000   6.5950000  19.4930000  42.3220000   6.8100000  21.2530000
  45.3470000   8.5290000  18.8070000  44.5340000   7.8560000  21.0270000
  45.1680000   8.6300000  17.4320000  43.7790000   8.2800000  15.4110000
  41.3300000   6.2390000  22.0850000  43.5530000   7.2980000  21.8580000
  46.1520000   8.8500000  19.1970000  45.3480000   8.1730000  21.3990000
  46.1640000   9.2160000  16.5690000  42.9800000   7.9730000  14.9990000
  44.7580000   8.8310000  14.6490000  41.5090000   6.1380000  23.4600000
  40.5250000   5.9180000  21.6960000  43.7090000   7.1790000  23.2490000
  45.9660000   9.3130000  15.2340000  46.9740000   9.5400000  16.9450000
  44.6370000   8.8960000  13.7090000  40.5130000   5.5520000  24.3230000
  42.7330000   6.6140000  24.0590000  44.5110000   7.4970000  23.6500000
  46.6340000   9.7050000  14.6840000  40.7110000   5.4550000  25.6590000
  39.7030000   5.2280000  23.9480000  42.8970000   6.4880000  25.4810000
  41.9180000   5.9370000  26.2430000  40.0420000   5.0630000  26.2080000
  43.6970000   6.7950000  25.8930000  42.0390000   5.8720000  27.1840000
  43.6250000  10.7460000  33.0920000  43.4690000  10.8660000  31.7000000
  42.6440000  10.1890000  33.9230000  44.8560000  11.2340000  33.6960000
  42.6670000  10.5480000  31.3000000  44.4450000  11.4310000  30.8900000
  41.8300000   9.8720000  33.5500000  42.8230000  10.0870000  35.3100000
  45.8480000  11.8060000  32.8640000  45.0350000  11.1320000  35.0840000
  45.6690000  11.9070000  31.4890000  44.2810000  11.5560000  29.4680000
  41.8310000   9.5160000  36.1420000  44.0540000  10.5750000  35.9140000
  46.6530000  12.1270000  33.2530000  45.8490000  11.4500000  35.4560000
  46.6650000  12.4930000  30.6260000  43.4810000  11.2500000  29.0560000
  45.2600000  12.1080000  28.7060000  42.0100000   9.4150000  37.5170000
  41.0260000   9.1950000  35.7530000  44.2110000  10.4560000  37.3060000
  46.4670000  12.5900000  29.2910000  47.4750000  12.8170000  31.0020000
  45.1390000  12.1720000  27.7660000  41.0140000   8.8290000  38.3800000
  43.2350000   9.8900000  38.1160000  45.0120000  10.7730000  37.7070000
  47.1360000  12.9820000  28.7410000  41.2120000   8.7320000  39.7150000
  40.2040000   8.5050000  38.0050000  43.3980000   9.7650000  39.5380000
  42.4190000   9.2140000  40.3000000  40.5440000   8.3400000  40.2650000
  44.1980000  10.0720000  39.9500000  42.5410000   9.1490000  41.2410000
  45.6300000  23.8540000  89.3190000  45.4740000  23.9730000  87.9270000
  44.6490000  23.2970000  90.1500000  46.8610000  24.3420000  89.9230000
  44.6720000  23.6560000  87.5270000  46.4500000  24.5390000  87.1180000
  43.8350000  22.9790000  89.7770000  44.8280000  23.1950000  91.5370000
  47.8530000  24.9130000  89.0910000  47.0400000  24.2400000  91.3110000
  47.6740000  25.0140000  87.7170000  46.2860000  24.6640000  85.6950000
  43.8360000  22.6230000  92.3690000  46.0590000  23.6830000  92.1420000
  48.6580000  25.2340000  89.4810000  47.8540000  24.5570000  91.6830000
  48.6700000  25.6000000  86.8530000  45.4860000  24.3570000  85.2830000
  47.2650000  25.2150000  84.9330000  44.0150000  22.5220000  93.7440000
  43.0310000  22.3020000  91.9800000  46.2160000  23.5630000  93.5330000
  48.4720000  25.6980000  85.5180000  49.4800000  25.9240000  87.2290000
  47.1440000  25.2800000  83.9930000  43.0190000  21.9360000  94.6070000
  45.2400000  22.9980000  94.3430000  47.0170000  23.8810000  93.9340000
  49.1410000  26.0890000  84.9680000  43.2170000  21.8390000  95.9430000
  42.2090000  21.6120000  94.2320000  45.4030000  22.8730000  95.7650000
  44.4250000  22.3210000  96.5270000  42.5490000  21.4470000  96.4920000
  46.2030000  23.1790000  96.1770000  44.5460000  22.2570000  97.4680000
  45.0570000  17.1290000  64.0280000  45.2130000  17.0090000  65.4200000
  46.0380000  17.6860000  63.1970000  43.8260000  16.6410000  63.4240000
  46.0140000  17.3270000  65.8200000  44.2370000  16.4440000  66.2290000
  46.8510000  18.0030000  63.5700000  45.8580000  17.7880000  61.8100000
  42.8340000  16.0690000  64.2560000  43.6460000  16.7430000  62.0360000
  43.0130000  15.9680000  65.6300000  44.4010000  16.3190000  67.6520000
  46.8500000  18.3600000  60.9780000  44.6280000  17.3000000  61.2050000
  42.0290000  15.7480000  63.8660000  42.8330000  16.4260000  61.6640000
  42.0170000  15.3820000  66.4940000  45.2010000  16.6250000  68.0640000
  43.4220000  15.7680000  68.4140000  46.6720000  18.4610000  59.6030000
  47.6560000  18.6810000  61.3670000  44.4710000  17.4200000  59.8140000
  42.2150000  15.2850000  67.8290000  41.2070000  15.0580000  66.1180000
  43.5430000  15.7030000  69.3540000  47.6680000  19.0470000  58.7400000
  45.4470000  17.9850000  59.0040000  43.6700000  17.1020000  59.4130000
  41.5460000  14.8930000  68.3790000  47.4700000  19.1440000  57.4040000
  48.4770000  19.3710000  59.1150000  45.2830000  18.1100000  57.5820000
  46.2620000  18.6610000  56.8200000  48.1380000  19.5360000  56.8550000
  44.4830000  17.8040000  57.1700000  46.1410000  18.7260000  55.8790000
  45.5580000  20.4060000  78.0850000  45.7140000  20.2860000  79.4760000
  46.5390000  20.9630000  77.2540000  44.3270000  19.9180000  77.4800000
  46.5160000  20.6040000  79.8770000  44.7380000  19.7210000  80.2860000
  47.3530000  21.2800000  77.6270000  46.3600000  21.0650000  75.8670000
  43.3350000  19.3460000  78.3130000  44.1480000  20.0200000  76.0930000
  43.5140000  19.2450000  79.6870000  44.9020000  19.5960000  81.7090000
  47.3520000  21.6370000  75.0350000  45.1290000  20.5770000  75.2620000
  42.5300000  19.0250000  77.9230000  43.3340000  19.7020000  75.7200000
  42.5180000  18.6590000  80.5500000  45.7020000  19.9020000  82.1210000
  43.9230000  19.0450000  82.4710000  47.1730000  21.7380000  73.6600000
  48.1570000  21.9580000  75.4240000  44.9720000  20.6960000  73.8710000
  42.7160000  18.5620000  81.8860000  41.7080000  18.3350000  80.1750000
  44.0440000  18.9800000  83.4110000  48.1690000  22.3230000  72.7970000
  45.9480000  21.2620000  73.0610000  44.1710000  20.3790000  73.4700000
  42.0470000  18.1700000  82.4350000  47.9710000  22.4210000  71.4610000
  48.9790000  22.6470000  73.1720000  45.7850000  21.3870000  71.6380000
  46.7640000  21.9380000  70.8770000  48.6390000  22.8120000  70.9120000
  44.9850000  21.0810000  71.2270000  46.6420000  22.0030000  69.9360000
  44.1260000  14.0230000  47.1490000  43.9700000  14.1430000  45.7570000
  43.1450000  13.4660000  47.9790000  45.3570000  14.5110000  47.7530000
  43.1690000  13.8250000  45.3560000  44.9460000  14.7080000  44.9470000
  42.3320000  13.1490000  47.6070000  43.3250000  13.3640000  49.3670000
  46.3490000  15.0830000  46.9210000  45.5370000  14.4090000  49.1400000
  46.1700000  15.1840000  45.5460000  44.7820000  14.8330000  43.5250000
  42.3330000  12.7920000  50.1990000  44.5550000  13.8520000  49.9710000
  47.1540000  15.4040000  47.3100000  46.3500000  14.7270000  49.5130000
  47.1660000  15.7700000  44.6830000  43.9820000  14.5270000  43.1130000
  45.7610000  15.3840000  42.7630000  42.5110000  12.6910000  51.5740000
  41.5270000  12.4710000  49.8100000  44.7120000  13.7330000  51.3630000
  46.9680000  15.8670000  43.3480000  47.9760000  16.0940000  45.0580000
  45.6400000  15.4490000  41.8220000  41.5150000  12.1060000  52.4370000
  43.7360000  13.1670000  52.1730000  45.5130000  14.0500000  51.7630000
  47.6370000  16.2590000  42.7980000  41.7130000  12.0080000  53.7720000
  40.7060000  11.7820000  52.0610000  43.9000000  13.0420000  53.5950000
  42.9210000  12.4910000  54.3570000  41.0450000  11.6170000  54.3220000
  44.7000000  13.3480000  54.0070000  43.0420000  12.4260000  55.2970000
  43.8600000  15.1480000  19.0350000  43.7030000  15.2680000  17.6430000
  42.8790000  14.5910000  19.8660000  45.0910000  15.6360000  19.6390000
  42.9020000  14.9500000  17.2430000  44.6790000  15.8330000  16.8340000
  42.0650000  14.2740000  19.4930000  43.0580000  14.4890000  21.2530000
  46.0830000  16.2080000  18.8070000  45.2700000  15.5340000  21.0270000
  45.9040000  16.3090000  17.4320000  44.5160000  15.9580000  15.4110000
  42.0660000  13.9170000  22.0850000  44.2890000  14.9770000  21.8580000
  46.8880000  16.5290000  19.1970000  46.0840000  15.8510000  21.3990000
  46.9000000  16.8950000  16.5690000  43.7160000  15.6520000  14.9990000
  45.4950000  16.5090000  14.6490000  42.2450000  13.8160000  23.4600000
  41.2610000  13.5960000  21.6960000  44.4450000  14.8580000  23.2490000
  46.7020000  16.9920000  15.2340000  47.7100000  17.2190000  16.9450000
  45.3730000  16.5740000  13.7090000  41.2490000  13.2300000  24.3230000
  43.4690000  14.2920000  24.0590000  45.2470000  15.1750000  23.6500000
  47.3700000  17.3840000  14.6840000  41.4470000  13.1330000  25.6590000
  40.4390000  12.9060000  23.9480000  43.6330000  14.1670000  25.4810000
  42.6540000  13.6160000  26.2430000  40.7780000  12.7420000  26.2080000
  44.4330000  14.4730000  25.8930000  42.7750000  13.5510000  27.1840000
  44.3610000  18.4250000  33.0920000  44.2050000  18.5450000  31.7000000
  43.3800000  17.8680000  33.9230000  45.5920000  18.9130000  33.6960000
  43.4030000  18.2270000  31.3000000  45.1810000  19.1100000  30.8900000
  42.5670000  17.5510000  33.5500000  43.5590000  17.7660000  35.3100000
  46.5840000  19.4850000  32.8640000  45.7710000  18.8110000  35.0840000
  46.4050000  19.5860000  31.4890000  45.0170000  19.2350000  29.4680000
  42.5680000  17.1940000  36.1420000  44.7900000  18.2540000  35.9140000
  47.3890000  19.8060000  33.2530000  46.5850000  19.1280000  35.4560000
  47.4010000  20.1720000  30.6260000  44.2170000  18.9290000  29.0560000
  45.9960000  19.7860000  28.7060000  42.7460000  17.0930000  37.5170000
  41.7620000  16.8730000  35.7530000  44.9470000  18.1340000  37.3060000
  47.2030000  20.2690000  29.2910000  48.2110000  20.4960000  31.0020000
  45.8750000  19.8510000  27.7660000  41.7500000  16.5070000  38.3800000
  43.9710000  17.5690000  38.1160000  45.7480000  18.4520000  37.7070000
  47.8720000  20.6600000  28.7410000  41.9480000  16.4100000  39.7150000
  40.9400000  16.1830000  38.0050000  44.1350000  17.4440000  39.5380000
  43.1560000  16.8930000  40.3000000  41.2800000  16.0180000  40.2650000
  44.9340000  17.7500000  39.9500000  43.2770000  16.8280000  41.2410000
  44.8620000  21.7020000  47.1490000  44.7060000  21.8210000  45.7570000
  43.8810000  21.1450000  47.9790000  46.0930000  22.1900000  47.7530000
  43.9050000  21.5040000  45.3560000  45.6820000  22.3870000  44.9470000
  43.0680000  20.8270000  47.6070000  44.0610000  21.0430000  49.3670000
  47.0850000  22.7610000  46.9210000  46.2730000  22.0880000  49.1400000
  46.9070000  22.8630000  45.5460000  45.5180000  22.5120000  43.5250000
  43.0690000  20.4710000  50.1990000  45.2910000  21.5310000  49.9710000
  47.8910000  23.0830000  47.3100000  47.0860000  22.4050000  49.5130000
  47.9030000  23.4480000  44.6830000  44.7180000  22.2050000  43.1130000
  46.4970000  23.0630000  42.7630000  43.2470000  20.3700000  51.5740000
  42.2630000  20.1500000  49.8100000  45.4480000  21.4110000  51.3630000
  47.7050000  23.5460000  43.3480000  48.7120000  23.7720000  45.0580000
  46.3760000  23.1280000  41.8220000  42.2510000  19.7840000  52.4370000
  44.4720000  20.8460000  52.1730000  46.2490000  21.7290000  51.7630000
  48.3730000  23.9370000  42.7980000  42.4490000  19.6870000  53.7720000
  41.4420000  19.4600000  52.0610000  44.6360000  20.7210000  53.5950000
  43.6570000  20.1700000  54.3570000  41.7810000  19.2950000  54.3220000
  45.4360000  21.0270000  54.0070000  43.7780000  20.1050000  55.2970000
  45.7930000  24.8070000  64.0280000  45.9490000  24.6880000  65.4200000
  46.7740000  25.3650000  63.1970000  44.5620000  24.3190000  63.4240000
  46.7510000  25.0060000  65.8200000  44.9730000  24.1230000  66.2290000
  47.5870000  25.6820000  63.5700000  46.5950000  25.4670000  61.8100000
  43.5700000  23.7480000  64.2560000  44.3830000  24.4210000  62.0360000
  43.7490000  23.6470000  65.6300000  45.1370000  23.9970000  67.6520000
  47.5860000  26.0380000  60.9780000  45.3640000  24.9790000  61.2050000
  42.7650000  23.4270000  63.8660000  43.5690000  24.1040000  61.6640000
  42.7530000  23.0610000  66.4940000  45.9370000  24.3040000  68.0640000
  44.1580000  23.4460000  68.4140000  47.4080000  26.1390000  59.6030000
  48.3920000  26.3590000  61.3670000  45.2070000  25.0980000  59.8140000
  42.9510000  22.9640000  67.8290000  41.9430000  22.7370000  66.1180000
  44.2790000  23.3810000  69.3540000  48.4040000  26.7250000  58.7400000
  46.1830000  25.6630000  59.0040000  44.4060000  24.7810000  59.4130000
  42.2820000  22.5720000  68.3790000  48.2060000  26.8220000  57.4040000
  49.2140000  27.0490000  59.1150000  46.0190000  25.7890000  57.5820000
  46.9980000  26.3400000  56.8200000  48.8740000  27.2140000  56.8550000
  45.2200000  25.4820000  57.1700000  46.8770000  26.4050000  55.8790000
  46.2940000  28.0840000  78.0850000  46.4500000  27.9650000  79.4760000
  47.2750000  28.6420000  77.2540000  45.0630000  27.5960000  77.4800000
  47.2520000  28.2820000  79.8770000  45.4750000  27.4000000  80.2860000
  48.0890000  28.9590000  77.6270000  47.0960000  28.7440000  75.8670000
  44.0710000  27.0250000  78.3130000  44.8840000  27.6980000  76.0930000
  44.2500000  26.9240000  79.6870000  45.6380000  27.2740000  81.7090000
  48.0880000  29.3150000  75.0350000  45.8650000  28.2560000  75.2620000
  43.2660000  26.7040000  77.9230000  44.0700000  27.3810000  75.7200000
  43.2540000  26.3380000  80.5500000  46.4380000  27.5810000  82.1210000
  44.6590000  26.7230000  82.4710000  47.9090000  29.4160000  73.6600000
  48.8930000  29.6360000  75.4240000  45.7090000  28.3750000  73.8710000
  43.4520000  26.2410000  81.8860000  42.4440000  26.0140000  80.1750000
  44.7810000  26.6580000  83.4110000  48.9050000  30.0020000  72.7970000
  46.6840000  28.9400000  73.0610000  44.9070000  28.0570000  73.4700000
  42.7830000  25.8490000  82.4350000  48.7070000  30.0990000  71.4610000
  49.7150000  30.3260000  73.1720000  46.5210000  29.0660000  71.6380000
  47.5000000  29.6170000  70.8770000  49.3760000  30.4910000  70.9120000
  45.7210000  28.7590000  71.2270000  47.3780000  29.6820000  69.9360000
  46.3660000  31.5320000  89.3190000  46.2100000  31.6520000  87.9270000
  45.3850000  30.9750000  90.1500000  47.5970000  32.0200000  89.9230000
  45.4080000  31.3340000  87.5270000  47.1860000  32.2170000  87.1180000
  44.5720000  30.6580000  89.7770000  45.5640000  30.8730000  91.5370000
  48.5890000  32.5920000  89.0910000  47.7760000  31.9180000  91.3110000
  48.4100000  32.6930000  87.7170000  47.0220000  32.3420000  85.6950000
  44.5730000  30.3020000  92.3690000  46.7950000  31.3610000  92.1420000
  49.3940000  32.9130000  89.4810000  48.5900000  32.2360000  91.6830000
  49.4060000  33.2790000  86.8530000  46.2220000  32.0360000  85.2830000
  48.0010000  32.8930000  84.9330000  44.7510000  30.2000000  93.7440000
  43.7670000  29.9800000  91.9800000  46.9520000  31.2420000  93.5330000
  49.2080000  33.3760000  85.5180000  50.2160000  33.6030000  87.2290000
  47.8800000  32.9580000  83.9930000  43.7550000  29.6150000  94.6070000
  45.9760000  30.6760000  94.3430000  47.7530000  31.5590000  93.9340000
  49.8770000  33.7680000  84.9680000  43.9530000  29.5170000  95.9430000
  42.9450000  29.2910000  94.2320000  46.1400000  30.5510000  95.7650000
  45.1610000  30.0000000  96.5270000  43.2850000  29.1260000  96.4920000
  46.9390000  30.8580000  96.1770000  45.2820000  29.9350000  97.4680000
  44.5960000  22.8270000  19.0350000  44.4400000  22.9460000  17.6430000
  43.6150000  22.2700000  19.8660000  45.8270000  23.3150000  19.6390000
  43.6380000  22.6290000  17.2430000  45.4160000  23.5120000  16.8340000
  42.8010000  21.9520000  19.4930000  43.7940000  22.1680000  21.2530000
  46.8190000  23.8860000  18.8070000  46.0060000  23.2130000  21.0270000
  46.6400000  23.9870000  17.4320000  45.2520000  23.6370000  15.4110000
  42.8020000  21.5960000  22.0850000  45.0250000  22.6560000  21.8580000
  47.6240000  24.2080000  19.1970000  46.8200000  23.5300000  21.3990000
  47.6360000  24.5730000  16.5690000  44.4520000  23.3300000  14.9990000
  46.2310000  24.1880000  14.6490000  42.9810000  21.4950000  23.4600000
  41.9970000  21.2750000  21.6960000  45.1820000  22.5360000  23.2490000
  47.4380000  24.6710000  15.2340000  48.4460000  24.8970000  16.9450000
  46.1100000  24.2530000  13.7090000  41.9850000  20.9090000  24.3230000
  44.2060000  21.9710000  24.0590000  45.9830000  22.8540000  23.6500000
  48.1070000  25.0620000  14.6840000  42.1830000  20.8120000  25.6590000
  41.1750000  20.5850000  23.9480000  44.3690000  21.8460000  25.4810000
  43.3900000  21.2940000  26.2430000  41.5150000  20.4200000  26.2080000
  45.1690000  22.1520000  25.8930000  43.5120000  21.2300000  27.1840000
  45.5260000  25.9320000  35.9140000  45.6830000  25.8130000  37.3060000
  46.5080000  26.4900000  35.0840000  44.2960000  25.4440000  35.3100000
  46.4840000  26.1310000  37.7070000  44.7070000  25.2480000  38.1160000
  47.3210000  26.8070000  35.4560000  46.3280000  26.5920000  33.6960000
  43.3040000  24.8730000  36.1420000  44.1160000  25.5460000  33.9230000
  43.4820000  24.7720000  37.5170000  44.8710000  25.1220000  39.5380000
  47.3200000  27.1630000  32.8640000  45.0970000  26.1040000  33.0920000
  42.4980000  24.5520000  35.7530000  43.3030000  25.2290000  33.5500000
  42.4860000  24.1860000  38.3800000  45.6700000  25.4290000  39.9500000
  43.8920000  24.5710000  40.3000000  47.1410000  27.2640000  31.4890000
  48.1250000  27.4840000  33.2530000  44.9410000  26.2230000  31.7000000
  42.6840000  24.0890000  39.7150000  41.6760000  23.8620000  38.0050000
  44.0130000  24.5060000  41.2410000  48.1370000  27.8500000  30.6260000
  45.9170000  26.7880000  30.8900000  44.1400000  25.9050000  31.3000000
  42.0160000  23.6970000  40.2650000  47.9390000  27.9470000  29.2910000
  48.9470000  28.1740000  31.0020000  45.7530000  26.9140000  29.4680000
  46.7320000  27.4650000  28.7060000  48.6080000  28.3390000  28.7410000
  44.9530000  26.6070000  29.0560000  46.6110000  27.5300000  27.7660000
  45.5990000  29.3810000  47.1490000  45.4420000  29.5000000  45.7570000
  44.6170000  28.8230000  47.9790000  46.8290000  29.8680000  47.7530000
  44.6410000  29.1820000  45.3560000  46.4180000  30.0650000  44.9470000
  43.8040000  28.5060000  47.6070000  44.7970000  28.7210000  49.3670000
  47.8210000  30.4400000  46.9210000  47.0090000  29.7670000  49.1400000
  47.6430000  30.5410000  45.5460000  46.2540000  30.1900000  43.5250000
  43.8050000  28.1500000  50.1990000  46.0280000  29.2090000  49.9710000
  48.6270000  30.7610000  47.3100000  47.8220000  30.0840000  49.5130000
  48.6390000  31.1270000  44.6830000  45.4540000  29.8840000  43.1130000
  47.2330000  30.7420000  42.7630000  43.9840000  28.0490000  51.5740000
  43.0000000  27.8290000  49.8100000  46.1840000  29.0900000  51.3630000
  48.4410000  31.2240000  43.3480000  49.4480000  31.4510000  45.0580000
  47.1120000  30.8060000  41.8220000  42.9880000  27.4630000  52.4370000
  45.2080000  28.5250000  52.1730000  46.9850000  29.4070000  51.7630000
  49.1090000  31.6160000  42.7980000  43.1860000  27.3660000  53.7720000
  42.1780000  27.1390000  52.0610000  45.3720000  28.3990000  53.5950000
  44.3930000  27.8480000  54.3570000  42.5170000  26.9740000  54.3220000
  46.1720000  28.7060000  54.0070000  44.5140000  27.7830000  55.2970000
  46.5290000  32.4860000  64.0280000  46.6850000  32.3670000  65.4200000
  47.5100000  33.0430000  63.1970000  45.2980000  31.9980000  63.4240000
  47.4870000  32.6840000  65.8200000  45.7090000  31.8010000  66.2290000
  48.3240000  33.3610000  63.5700000  47.3310000  33.1450000  61.8100000
  44.3060000  31.4270000  64.2560000  45.1190000  32.1000000  62.0360000
  44.4850000  31.3250000  65.6300000  45.8730000  31.6760000  67.6520000
  48.3230000  33.7170000  60.9780000  46.1000000  32.6570000  61.2050000
  43.5010000  31.1050000  63.8660000  44.3050000  31.7830000  61.6640000
  43.4890000  30.7400000  66.4940000  46.6730000  31.9820000  68.0640000
  44.8940000  31.1250000  68.4140000  48.1440000  33.8180000  59.6030000
  49.1280000  34.0380000  61.3670000  45.9430000  32.7770000  59.8140000
  43.6870000  30.6420000  67.8290000  42.6790000  30.4160000  66.1180000
  45.0150000  31.0600000  69.3540000  49.1400000  34.4040000  58.7400000
  46.9190000  33.3420000  59.0040000  45.1420000  32.4590000  59.4130000
  43.0180000  30.2510000  68.3790000  48.9420000  34.5010000  57.4040000
  49.9500000  34.7280000  59.1150000  46.7560000  33.4670000  57.5820000
  47.7340000  34.0180000  56.8200000  49.6100000  34.8930000  56.8550000
  45.9560000  33.1610000  57.1700000  47.6130000  34.0830000  55.8790000
  46.6010000  35.9340000  75.2620000  46.4450000  36.0540000  73.8710000
  45.6200000  35.3770000  76.0930000  47.8320000  36.4220000  75.8670000
  45.6430000  35.7360000  73.4700000  47.4210000  36.6190000  73.0610000
  44.8060000  35.0600000  75.7200000  45.7990000  35.2750000  77.4800000
  48.8240000  36.9940000  75.0350000  48.0110000  36.3200000  77.2540000
  48.6450000  37.0950000  73.6600000  47.2570000  36.7440000  71.6380000
  44.8070000  34.7030000  78.3130000  47.0300000  35.7630000  78.0850000
  49.6290000  37.3150000  75.4240000  48.8250000  36.6370000  77.6270000
  49.6410000  37.6810000  72.7970000  46.4570000  36.4380000  71.2270000
  48.2360000  37.2950000  70.8770000  44.9860000  34.6020000  79.6870000
  44.0020000  34.3820000  77.9230000  47.1870000  35.6430000  79.4760000
  49.4430000  37.7780000  71.4610000  50.4510000  38.0050000  73.1720000
  48.1150000  37.3600000  69.9360000  43.9900000  34.0160000  80.5500000
  46.2110000  35.0780000  80.2860000  47.9880000  35.9610000  79.8770000
  50.1120000  38.1700000  70.9120000  44.1880000  33.9190000  81.8860000
  43.1800000  33.6920000  80.1750000  46.3740000  34.9530000  81.7090000
  45.3950000  34.4020000  82.4710000  43.5200000  33.5270000  82.4350000
  47.1740000  35.2590000  82.1210000  45.5170000  34.3370000  83.4110000
  47.5310000  39.0400000  92.1420000  47.6880000  38.9200000  93.5330000
  48.5130000  39.5970000  91.3110000  46.3010000  38.5520000  91.5370000
  48.4890000  39.2380000  93.9340000  46.7120000  38.3550000  94.3430000
  49.3260000  39.9140000  91.6830000  48.3330000  39.6990000  89.9230000
  45.3090000  37.9800000  92.3690000  46.1210000  38.6540000  90.1500000
  45.4870000  37.8790000  93.7440000  46.8760000  38.2300000  95.7650000
  49.3250000  40.2710000  89.0910000  47.1020000  39.2110000  89.3190000
  44.5030000  37.6590000  91.9800000  45.3080000  38.3370000  89.7770000
  44.4910000  37.2930000  94.6070000  47.6760000  38.5360000  96.1770000
  45.8970000  37.6790000  96.5270000  49.1460000  40.3720000  87.7170000
  50.1300000  40.5920000  89.4810000  46.9460000  39.3300000  87.9270000
  44.6890000  37.1960000  95.9430000  43.6820000  36.9690000  94.2320000
  46.0180000  37.6140000  97.4680000  50.1420000  40.9570000  86.8530000
  47.9220000  39.8960000  87.1180000  46.1450000  39.0130000  87.5270000
  44.0210000  36.8040000  96.4920000  49.9440000  41.0550000  85.5180000
  50.9520000  41.2810000  87.2290000  47.7580000  40.0210000  85.6950000
  48.7370000  40.5720000  84.9330000  50.6130000  41.4460000  84.9680000
  46.9580000  39.7150000  85.2830000  48.6160000  40.6370000  83.9930000
  45.8330000  33.7820000  33.0920000  45.6770000  33.9020000  31.7000000
  44.8520000  33.2250000  33.9230000  47.0640000  34.2700000  33.6960000
  44.8760000  33.5840000  31.3000000  46.6530000  34.4670000  30.8900000
  44.0390000  32.9080000  33.5500000  45.0320000  33.1230000  35.3100000
  48.0560000  34.8420000  32.8640000  47.2440000  34.1680000  35.0840000
  47.8770000  34.9430000  31.4890000  46.4890000  34.5920000  29.4680000
  44.0400000  32.5510000  36.1420000  46.2620000  33.6110000  35.9140000
  48.8610000  35.1630000  33.2530000  48.0570000  34.4850000  35.4560000
  48.8730000  35.5290000  30.6260000  45.6890000  34.2860000  29.0560000
  47.4680000  35.1430000  28.7060000  44.2180000  32.4500000  37.5170000
  43.2340000  32.2300000  35.7530000  46.4190000  33.4920000  37.3060000
  48.6760000  35.6260000  29.2910000  49.6830000  35.8530000  31.0020000
  47.3470000  35.2080000  27.7660000  43.2220000  31.8640000  38.3800000
  45.4430000  32.9260000  38.1160000  47.2200000  33.8090000  37.7070000
  49.3440000  36.0180000  28.7410000  43.4200000  31.7670000  39.7150000
  42.4130000  31.5410000  38.0050000  45.6070000  32.8010000  39.5380000
  44.6280000  32.2500000  40.3000000  42.7520000  31.3760000  40.2650000
  46.4070000  33.1070000  39.9500000  44.7490000  32.1850000  41.2410000
  45.7610000  30.3340000  21.8580000  45.9180000  30.2150000  23.2490000
  46.7420000  30.8910000  21.0270000  44.5300000  29.8460000  21.2530000
  46.7190000  30.5320000  23.6500000  44.9420000  29.6490000  24.0590000
  47.5560000  31.2090000  21.3990000  46.5630000  30.9930000  19.6390000
  43.5380000  29.2750000  22.0850000  44.3510000  29.9480000  19.8660000
  43.7170000  29.1740000  23.4600000  45.1060000  29.5240000  25.4810000
  47.5550000  31.5650000  18.8070000  45.3320000  30.5050000  19.0350000
  42.7330000  28.9530000  21.6960000  43.5380000  29.6310000  19.4930000
  42.7210000  28.5880000  24.3230000  45.9050000  29.8310000  25.8930000
  44.1270000  28.9730000  26.2430000  47.3760000  31.6660000  17.4320000
  48.3600000  31.8860000  19.1970000  45.1760000  30.6250000  17.6430000
  42.9190000  28.4900000  25.6590000  41.9110000  28.2640000  23.9480000
  44.2480000  28.9080000  27.1840000  48.3720000  32.2520000  16.5690000
  46.1520000  31.1900000  16.8340000  44.3740000  30.3070000  17.2430000
  42.2510000  28.0990000  26.2080000  48.1740000  32.3490000  15.2340000
  49.1820000  32.5760000  16.9450000  45.9880000  31.3150000  15.4110000
  46.9670000  31.8670000  14.6490000  48.8430000  32.7410000  14.6840000
  45.1880000  31.0090000  14.9990000  46.8460000  31.9310000  13.7090000
  46.3350000  37.0590000  47.1490000  46.1780000  37.1790000  45.7570000
  45.3540000  36.5020000  47.9790000  47.5660000  37.5470000  47.7530000
  45.3770000  36.8610000  45.3560000  47.1540000  37.7440000  44.9470000
  44.5400000  36.1850000  47.6070000  45.5330000  36.4000000  49.3670000
  48.5570000  38.1190000  46.9210000  47.7450000  37.4450000  49.1400000
  48.3790000  38.2200000  45.5460000  46.9900000  37.8690000  43.5250000
  44.5410000  35.8280000  50.1990000  46.7640000  36.8880000  49.9710000
  49.3630000  38.4400000  47.3100000  48.5580000  37.7620000  49.5130000
  49.3750000  38.8060000  44.6830000  46.1910000  37.5630000  43.1130000
  47.9690000  38.4200000  42.7630000  44.7200000  35.7270000  51.5740000
  43.7360000  35.5070000  49.8100000  46.9200000  36.7680000  51.3630000
  49.1770000  38.9030000  43.3480000  50.1850000  39.1300000  45.0580000
  47.8480000  38.4850000  41.8220000  43.7240000  35.1410000  52.4370000
  45.9440000  36.2030000  52.1730000  47.7220000  37.0860000  51.7630000
  49.8450000  39.2950000  42.7980000  43.9220000  35.0440000  53.7720000
  42.9140000  34.8170000  52.0610000  46.1080000  36.0780000  53.5950000
  45.1290000  35.5270000  54.3570000  43.2530000  34.6520000  54.3220000
  46.9080000  36.3840000  54.0070000  45.2500000  35.4620000  55.2970000
  47.2650000  40.1650000  64.0280000  47.4210000  40.0450000  65.4200000
  48.2460000  40.7220000  63.1970000  46.0340000  39.6770000  63.4240000
  48.2230000  40.3630000  65.8200000  46.4460000  39.4800000  66.2290000
  49.0600000  41.0390000  63.5700000  48.0670000  40.8240000  61.8100000
  45.0420000  39.1050000  64.2560000  45.8550000  39.7790000  62.0360000
  45.2210000  39.0040000  65.6300000  46.6090000  39.3550000  67.6520000
  49.0590000  41.3950000  60.9780000  46.8360000  40.3360000  61.2050000
  44.2370000  38.7840000  63.8660000  45.0410000  39.4610000  61.6640000
  44.2250000  38.4180000  66.4940000  47.4090000  39.6610000  68.0640000
  45.6300000  38.8040000  68.4140000  48.8800000  41.4970000  59.6030000
  49.8640000  41.7170000  61.3670000  46.6800000  40.4550000  59.8140000
  44.4230000  38.3210000  67.8290000  43.4150000  38.0940000  66.1180000
  45.7510000  38.7390000  69.3540000  49.8760000  42.0820000  58.7400000
  47.6550000  41.0210000  59.0040000  45.8780000  40.1380000  59.4130000
  43.7540000  37.9290000  68.3790000  49.6780000  42.1800000  57.4040000
  50.6860000  42.4060000  59.1150000  47.4920000  41.1460000  57.5820000
  48.4710000  41.6970000  56.8200000  50.3460000  42.5710000  56.8550000
  46.6920000  40.8400000  57.1700000  48.3490000  41.7620000  55.8790000
  47.3370000  43.6130000  75.2620000  47.1810000  43.7320000  73.8710000
  46.3560000  43.0550000  76.0930000  48.5680000  44.1010000  75.8670000
  46.3790000  43.4150000  73.4700000  48.1570000  44.2970000  73.0610000
  45.5430000  42.7380000  75.7200000  46.5350000  42.9530000  77.4800000
  49.5600000  44.6720000  75.0350000  48.7470000  43.9990000  77.2540000
  49.3810000  44.7730000  73.6600000  47.9930000  44.4230000  71.6380000
  45.5440000  42.3820000  78.3130000  47.7660000  43.4410000  78.0850000
  50.3650000  44.9930000  75.4240000  49.5610000  44.3160000  77.6270000
  50.3770000  45.3590000  72.7970000  47.1930000  44.1160000  71.2270000
  48.9720000  44.9740000  70.8770000  45.7220000  42.2810000  79.6870000
  44.7380000  42.0610000  77.9230000  47.9230000  43.3220000  79.4760000
  50.1790000  45.4560000  71.4610000  51.1870000  45.6830000  73.1720000
  48.8510000  45.0390000  69.9360000  44.7260000  41.6950000  80.5500000
  46.9470000  42.7570000  80.2860000  48.7240000  43.6400000  79.8770000
  50.8480000  45.8480000  70.9120000  44.9240000  41.5980000  81.8860000
  43.9160000  41.3710000  80.1750000  47.1110000  42.6320000  81.7090000
  46.1320000  42.0800000  82.4710000  44.2560000  41.2060000  82.4350000
  47.9100000  42.9380000  82.1210000  46.2530000  42.0160000  83.4110000
  47.8380000  46.8900000  89.3190000  47.6820000  47.0090000  87.9270000
  46.8570000  46.3320000  90.1500000  49.0690000  47.3780000  89.9230000
  46.8810000  46.6910000  87.5270000  48.6580000  47.5740000  87.1180000
  46.0440000  46.0150000  89.7770000  47.0370000  46.2300000  91.5370000
  50.0610000  47.9490000  89.0910000  49.2490000  47.2760000  91.3110000
  49.8830000  48.0500000  87.7170000  48.4940000  47.7000000  85.6950000
  46.0450000  45.6590000  92.3690000  48.2680000  46.7180000  92.1420000
  50.8670000  48.2700000  89.4810000  50.0620000  47.5930000  91.6830000
  50.8790000  48.6360000  86.8530000  47.6940000  47.3930000  85.2830000
  49.4730000  48.2510000  84.9330000  46.2230000  45.5580000  93.7440000
  45.2390000  45.3380000  91.9800000  48.4240000  46.5990000  93.5330000
  50.6810000  48.7330000  85.5180000  51.6880000  48.9600000  87.2290000
  49.3520000  48.3160000  83.9930000  45.2270000  44.9720000  94.6070000
  47.4480000  46.0340000  94.3430000  49.2250000  46.9160000  93.9340000
  51.3490000  49.1250000  84.9680000  45.4250000  44.8750000  95.9430000
  44.4180000  44.6480000  94.2320000  47.6120000  45.9080000  95.7650000
  46.6330000  45.3570000  96.5270000  44.7570000  44.4830000  96.4920000
  48.4120000  46.2150000  96.1770000  46.7540000  45.2920000  97.4680000
  46.0680000  38.1840000  19.0350000  45.9120000  38.3030000  17.6430000
  45.0870000  37.6270000  19.8660000  47.2990000  38.6720000  19.6390000
  45.1100000  37.9860000  17.2430000  46.8880000  38.8690000  16.8340000
  44.2740000  37.3100000  19.4930000  45.2670000  37.5250000  21.2530000
  48.2910000  39.2440000  18.8070000  47.4780000  38.5700000  21.0270000
  48.1120000  39.3450000  17.4320000  46.7240000  38.9940000  15.4110000
  44.2750000  36.9530000  22.0850000  46.4970000  38.0130000  21.8580000
  49.0960000  39.5650000  19.1970000  48.2920000  38.8870000  21.3990000
  49.1080000  39.9310000  16.5690000  45.9240000  38.6880000  14.9990000
  47.7030000  39.5450000  14.6490000  44.4530000  36.8520000  23.4600000
  43.4690000  36.6320000  21.6960000  46.6540000  37.8930000  23.2490000
  48.9100000  40.0280000  15.2340000  49.9180000  40.2550000  16.9450000
  47.5820000  39.6100000  13.7090000  43.4570000  36.2660000  24.3230000
  45.6780000  37.3280000  24.0590000  47.4550000  38.2110000  23.6500000
  49.5790000  40.4190000  14.6840000  43.6550000  36.1690000  25.6590000
  42.6470000  35.9420000  23.9480000  45.8420000  37.2030000  25.4810000
  44.8630000  36.6520000  26.2430000  42.9870000  35.7770000  26.2080000
  46.6410000  37.5090000  25.8930000  44.9840000  36.5870000  27.1840000
  46.5700000  41.4610000  33.0920000  46.4130000  41.5800000  31.7000000
  45.5880000  40.9040000  33.9230000  47.8000000  41.9490000  33.6960000
  45.6120000  41.2630000  31.3000000  47.3890000  42.1460000  30.8900000
  44.7750000  40.5860000  33.5500000  45.7680000  40.8020000  35.3100000
  48.7920000  42.5200000  32.8640000  47.9800000  41.8470000  35.0840000
  48.6140000  42.6210000  31.4890000  47.2250000  42.2710000  29.4680000
  44.7760000  40.2300000  36.1420000  46.9990000  41.2900000  35.9140000
  49.5980000  42.8420000  33.2530000  48.7930000  42.1640000  35.4560000
  49.6100000  43.2070000  30.6260000  46.4250000  41.9640000  29.0560000
  48.2040000  42.8220000  28.7060000  44.9550000  40.1290000  37.5170000
  43.9710000  39.9090000  35.7530000  47.1550000  41.1700000  37.3060000
  49.4120000  43.3050000  29.2910000  50.4190000  43.5310000  31.0020000
  48.0830000  42.8870000  27.7660000  43.9590000  39.5430000  38.3800000
  46.1790000  40.6050000  38.1160000  47.9560000  41.4880000  37.7070000
  50.0800000  43.6960000  28.7410000  44.1560000  39.4460000  39.7150000
  43.1490000  39.2190000  38.0050000  46.3430000  40.4800000  39.5380000
  45.3640000  39.9290000  40.3000000  43.4880000  39.0540000  40.2650000
  47.1430000  40.7860000  39.9500000  45.4850000  39.8640000  41.2410000
  47.0710000  44.7380000  47.1490000  46.9140000  44.8570000  45.7570000
  46.0900000  44.1800000  47.9790000  48.3020000  45.2260000  47.7530000
  46.1130000  44.5400000  45.3560000  47.8900000  45.4220000  44.9470000
  45.2760000  43.8630000  47.6070000  46.2690000  44.0780000  49.3670000
  49.2940000  45.7970000  46.9210000  48.4810000  45.1240000  49.1400000
  49.1150000  45.8980000  45.5460000  47.7260000  45.5480000  43.5250000
  45.2770000  43.5070000  50.1990000  47.5000000  44.5660000  49.9710000
  50.0990000  46.1180000  47.3100000  49.2950000  45.4410000  49.5130000
  50.1110000  46.4840000  44.6830000  46.9270000  45.2410000  43.1130000
  48.7050000  46.0990000  42.7630000  45.4560000  43.4060000  51.5740000
  44.4720000  43.1860000  49.8100000  47.6560000  44.4470000  51.3630000
  49.9130000  46.5810000  43.3480000  50.9210000  46.8080000  45.0580000
  48.5840000  46.1640000  41.8220000  44.4600000  42.8200000  52.4370000
  46.6800000  43.8820000  52.1730000  48.4580000  44.7650000  51.7630000
  50.5810000  46.9730000  42.7980000  44.6580000  42.7230000  53.7720000
  43.6500000  42.4960000  52.0610000  46.8440000  43.7560000  53.5950000
  45.8650000  43.2050000  54.3570000  43.9890000  42.3310000  54.3220000
  47.6440000  44.0630000  54.0070000  45.9860000  43.1400000  55.2970000
  49.0040000  54.3970000  92.1420000  49.1600000  54.2770000  93.5330000
  49.9850000  54.9540000  91.3110000  47.7730000  53.9090000  91.5370000
  49.9610000  54.5950000  93.9340000  48.1840000  53.7120000  94.3430000
  50.7980000  55.2710000  91.6830000  49.8050000  55.0560000  89.9230000
  46.7810000  53.3370000  92.3690000  47.5930000  54.0110000  90.1500000
  46.9600000  53.2360000  93.7440000  48.3480000  53.5870000  95.7650000
  50.7970000  55.6280000  89.0910000  48.5750000  54.5680000  89.3190000
  45.9760000  53.0160000  91.9800000  46.7800000  53.6940000  89.7770000
  45.9640000  52.6500000  94.6070000  49.1480000  53.8930000  96.1770000
  47.3690000  53.0360000  96.5270000  50.6190000  55.7290000  87.7170000
  51.6030000  55.9490000  89.4810000  48.4180000  54.6880000  87.9270000
  46.1620000  52.5530000  95.9430000  45.1540000  52.3260000  94.2320000
  47.4900000  52.9710000  97.4680000  51.6150000  56.3150000  86.8530000
  49.3940000  55.2530000  87.1180000  47.6170000  54.3700000  87.5270000
  45.4930000  52.1620000  96.4920000  51.4170000  56.4120000  85.5180000
  52.4240000  56.6390000  87.2290000  49.2300000  55.3780000  85.6950000
  50.2090000  55.9290000  84.9330000  52.0850000  56.8040000  84.9680000
  48.4300000  55.0720000  85.2830000  50.0880000  55.9940000  83.9930000
  48.0010000  47.8430000  64.0280000  48.1580000  47.7240000  65.4200000
  48.9820000  48.4010000  63.1970000  46.7700000  47.3550000  63.4240000
  48.9590000  48.0410000  65.8200000  47.1820000  47.1590000  66.2290000
  49.7960000  48.7180000  63.5700000  48.8030000  48.5030000  61.8100000
  45.7780000  46.7840000  64.2560000  46.5910000  47.4570000  62.0360000
  45.9570000  46.6830000  65.6300000  47.3450000  47.0330000  67.6520000
  49.7950000  49.0740000  60.9780000  47.5720000  48.0150000  61.2050000
  44.9730000  46.4630000  63.8660000  45.7770000  47.1400000  61.6640000
  44.9610000  46.0970000  66.4940000  48.1450000  47.3400000  68.0640000
  46.3660000  46.4820000  68.4140000  49.6160000  49.1750000  59.6030000
  50.6000000  49.3950000  61.3670000  47.4160000  48.1340000  59.8140000
  45.1590000  46.0000000  67.8290000  44.1510000  45.7730000  66.1180000
  46.4880000  46.4170000  69.3540000  50.6120000  49.7610000  58.7400000
  48.3920000  48.6990000  59.0040000  46.6140000  47.8160000  59.4130000
  44.4910000  45.6080000  68.3790000  50.4140000  49.8580000  57.4040000
  51.4220000  50.0850000  59.1150000  48.2280000  48.8250000  57.5820000
  49.2070000  49.3760000  56.8200000  51.0830000  50.2500000  56.8550000
  47.4280000  48.5180000  57.1700000  49.0860000  49.4400000  55.8790000
  48.5020000  51.1200000  78.0850000  48.6590000  51.0010000  79.4760000
  49.4840000  51.6770000  77.2540000  47.2720000  50.6320000  77.4800000
  49.4600000  51.3180000  79.8770000  47.6830000  50.4350000  80.2860000
  50.2970000  51.9950000  77.6270000  49.3040000  51.7790000  75.8670000
  46.2800000  50.0610000  78.3130000  47.0920000  50.7340000  76.0930000
  46.4580000  49.9590000  79.6870000  47.8470000  50.3100000  81.7090000
  50.2960000  52.3510000  75.0350000  48.0730000  51.2910000  75.2620000
  45.4740000  49.7390000  77.9230000  46.2790000  50.4170000  75.7200000
  45.4620000  49.3740000  80.5500000  48.6470000  50.6170000  82.1210000
  46.8680000  49.7590000  82.4710000  50.1170000  52.4520000  73.6600000
  51.1010000  52.6720000  75.4240000  47.9170000  51.4110000  73.8710000
  45.6600000  49.2760000  81.8860000  44.6530000  49.0500000  80.1750000
  46.9890000  49.6940000  83.4110000  51.1130000  53.0380000  72.7970000
  48.8930000  51.9760000  73.0610000  47.1160000  51.0930000  73.4700000
  44.9920000  48.8850000  82.4350000  50.9150000  53.1350000  71.4610000
  51.9230000  53.3620000  73.1720000  48.7290000  52.1010000  71.6380000
  49.7080000  52.6520000  70.8770000  51.5840000  53.5270000  70.9120000
  47.9290000  51.7950000  71.2270000  49.5870000  52.7170000  69.9360000
  47.3060000  49.1390000  33.0920000  47.1490000  49.2590000  31.7000000
  46.3250000  48.5820000  33.9230000  48.5360000  49.6270000  33.6960000
  46.3480000  48.9410000  31.3000000  48.1250000  49.8240000  30.8900000
  45.5110000  48.2650000  33.5500000  46.5040000  48.4800000  35.3100000
  49.5280000  50.1990000  32.8640000  48.7160000  49.5250000  35.0840000
  49.3500000  50.3000000  31.4890000  47.9610000  49.9490000  29.4680000
  45.5120000  47.9090000  36.1420000  47.7350000  48.9680000  35.9140000
  50.3340000  50.5200000  33.2530000  49.5290000  49.8430000  35.4560000
  50.3460000  50.8860000  30.6260000  47.1620000  49.6430000  29.0560000
  48.9400000  50.5010000  28.7060000  45.6910000  47.8080000  37.5170000
  44.7070000  47.5870000  35.7530000  47.8910000  48.8490000  37.3060000
  50.1480000  50.9830000  29.2910000  51.1560000  51.2100000  31.0020000
  48.8190000  50.5650000  27.7660000  44.6950000  47.2220000  38.3800000
  46.9150000  48.2830000  38.1160000  48.6930000  49.1660000  37.7070000
  50.8160000  51.3750000  28.7410000  44.8930000  47.1240000  39.7150000
  43.8850000  46.8980000  38.0050000  47.0790000  48.1580000  39.5380000
  46.1000000  47.6070000  40.3000000  44.2240000  46.7330000  40.2650000
  47.8790000  48.4650000  39.9500000  46.2210000  47.5420000  41.2410000
  48.3080000  55.6930000  61.2050000  48.1520000  55.8130000  59.8140000
  47.3270000  55.1360000  62.0360000  49.5390000  56.1810000  61.8100000
  47.3500000  55.4950000  59.4130000  49.1280000  56.3780000  59.0040000
  46.5140000  54.8190000  61.6640000  47.5060000  55.0340000  63.4240000
  50.5310000  56.7530000  60.9780000  49.7180000  56.0790000  63.1970000
  50.3520000  56.8540000  59.6030000  48.9640000  56.5030000  57.5820000
  46.5150000  54.4620000  64.2560000  48.7370000  55.5220000  64.0280000
  51.3360000  57.0740000  61.3670000  50.5320000  56.3960000  63.5700000
  51.3480000  57.4400000  58.7400000  48.1640000  56.1970000  57.1700000
  49.9430000  57.0540000  56.8200000  46.6930000  54.3610000  65.6300000
  45.7090000  54.1410000  63.8660000  48.8940000  55.4020000  65.4200000
  51.1500000  57.5370000  57.4040000  52.1580000  57.7640000  59.1150000
  49.8220000  57.1190000  55.8790000  45.6970000  53.7750000  66.4940000
  47.9180000  54.8370000  66.2290000  49.6950000  55.7200000  65.8200000
  51.8190000  57.9290000  56.8550000  45.8950000  53.6780000  67.8290000
  44.8870000  53.4510000  66.1180000  48.0820000  54.7120000  67.6520000
  47.1030000  54.1610000  68.4140000  45.2270000  53.2860000  68.3790000
  48.8810000  55.0180000  68.0640000  47.2240000  54.0960000  69.3540000
  47.2330000  45.6910000  21.8580000  47.3900000  45.5720000  23.2490000
  48.2150000  46.2490000  21.0270000  46.0030000  45.2030000  21.2530000
  48.1910000  45.8900000  23.6500000  46.4140000  45.0070000  24.0590000
  49.0280000  46.5660000  21.3990000  48.0350000  46.3510000  19.6390000
  45.0110000  44.6320000  22.0850000  45.8230000  45.3050000  19.8660000
  45.1890000  44.5310000  23.4600000  46.5780000  44.8810000  25.4810000
  49.0270000  46.9220000  18.8070000  46.8040000  45.8630000  19.0350000
  44.2050000  44.3110000  21.6960000  45.0100000  44.9880000  19.4930000
  44.1930000  43.9450000  24.3230000  47.3780000  45.1880000  25.8930000
  45.5990000  44.3300000  26.2430000  48.8480000  47.0230000  17.4320000
  49.8320000  47.2430000  19.1970000  46.6480000  45.9820000  17.6430000
  44.3910000  43.8480000  25.6590000  43.3840000  43.6210000  23.9480000
  45.7200000  44.2650000  27.1840000  49.8440000  47.6090000  16.5690000
  47.6240000  46.5470000  16.8340000  45.8470000  45.6640000  17.2430000
  43.7230000  43.4560000  26.2080000  49.6470000  47.7060000  15.2340000
  50.6540000  47.9330000  16.9450000  47.4600000  46.6730000  15.4110000
  48.4390000  47.2240000  14.6490000  50.3150000  48.0980000  14.6840000
  46.6600000  46.3660000  14.9990000  48.3180000  47.2890000  13.7090000
  48.2360000  52.2450000  49.9710000  48.3920000  52.1260000  51.3630000
  49.2170000  52.8020000  49.1400000  47.0050000  51.7570000  49.3670000
  49.1940000  52.4430000  51.7630000  47.4160000  51.5600000  52.1730000
  50.0310000  53.1200000  49.5130000  49.0380000  52.9040000  47.7530000
  46.0130000  51.1850000  50.1990000  46.8260000  51.8590000  47.9790000
  46.1920000  51.0840000  51.5740000  47.5800000  51.4350000  53.5950000
  50.0300000  53.4760000  46.9210000  47.8070000  52.4160000  47.1490000
  45.2080000  50.8640000  49.8100000  46.0120000  51.5420000  47.6070000
  45.1960000  50.4990000  52.4370000  48.3800000  51.7410000  54.0070000
  46.6010000  50.8840000  54.3570000  49.8510000  53.5770000  45.5460000
  50.8350000  53.7970000  47.3100000  47.6500000  52.5360000  45.7570000
  45.3940000  50.4010000  53.7720000  44.3860000  50.1750000  52.0610000
  46.7220000  50.8190000  55.2970000  50.8470000  54.1630000  44.6830000
  48.6260000  53.1010000  44.9470000  46.8490000  52.2180000  45.3560000
  44.7250000  50.0100000  54.3220000  50.6490000  54.2600000  43.3480000
  51.6570000  54.4870000  45.0580000  48.4630000  53.2260000  43.5250000
  49.4420000  53.7770000  42.7630000  51.3170000  54.6520000  42.7980000
  47.6630000  52.9200000  43.1130000  49.3200000  53.8420000  41.8220000
  49.2380000  58.7990000  78.0850000  49.3950000  58.6790000  79.4760000
  50.2200000  59.3560000  77.2540000  48.0080000  58.3110000  77.4800000
  50.1960000  58.9970000  79.8770000  48.4190000  58.1140000  80.2860000
  51.0330000  59.6730000  77.6270000  50.0400000  59.4580000  75.8670000
  47.0160000  57.7390000  78.3130000  47.8280000  58.4130000  76.0930000
  47.1940000  57.6380000  79.6870000  48.5830000  57.9890000  81.7090000
  51.0320000  60.0300000  75.0350000  48.8090000  58.9700000  75.2620000
  46.2100000  57.4180000  77.9230000  47.0150000  58.0950000  75.7200000
  46.1980000  57.0520000  80.5500000  49.3830000  58.2950000  82.1210000
  47.6040000  57.4380000  82.4710000  50.8540000  60.1310000  73.6600000
  51.8370000  60.3510000  75.4240000  48.6530000  59.0890000  73.8710000
  46.3960000  56.9550000  81.8860000  45.3890000  56.7280000  80.1750000
  47.7250000  57.3730000  83.4110000  51.8500000  60.7160000  72.7970000
  49.6290000  59.6550000  73.0610000  47.8520000  58.7720000  73.4700000
  45.7280000  56.5630000  82.4350000  51.6520000  60.8140000  71.4610000
  52.6590000  61.0400000  73.1720000  49.4650000  59.7800000  71.6380000
  50.4440000  60.3310000  70.8770000  52.3200000  61.2050000  70.9120000
  48.6650000  59.4740000  71.2270000  50.3230000  60.3960000  69.9360000
  49.3110000  62.2470000  89.3190000  49.1540000  62.3660000  87.9270000
  48.3300000  61.6890000  90.1500000  50.5420000  62.7350000  89.9230000
  48.3530000  62.0490000  87.5270000  50.1300000  62.9320000  87.1180000
  47.5160000  61.3720000  89.7770000  48.5090000  61.5880000  91.5370000
  51.5330000  63.3060000  89.0910000  50.7210000  62.6330000  91.3110000
  51.3550000  63.4070000  87.7170000  49.9660000  63.0570000  85.6950000
  47.5170000  61.0160000  92.3690000  49.7400000  62.0760000  92.1420000
  52.3390000  63.6270000  89.4810000  51.5340000  62.9500000  91.6830000
  52.3510000  63.9930000  86.8530000  49.1670000  62.7500000  85.2830000
  50.9450000  63.6080000  84.9330000  47.6960000  60.9150000  93.7440000
  46.7120000  60.6950000  91.9800000  49.8960000  61.9560000  93.5330000
  52.1530000  64.0900000  85.5180000  53.1610000  64.3170000  87.2290000
  50.8240000  63.6730000  83.9930000  46.7000000  60.3290000  94.6070000
  48.9200000  61.3910000  94.3430000  50.6980000  62.2740000  93.9340000
  52.8210000  64.4820000  84.9680000  46.8980000  60.2320000  95.9430000
  45.8900000  60.0050000  94.2320000  49.0840000  61.2660000  95.7650000
  48.1050000  60.7140000  96.5270000  46.2290000  59.8400000  96.4920000
  49.8840000  61.5720000  96.1770000  48.2260000  60.6500000  97.4680000
  49.5460000  66.6490000  75.2620000  49.3890000  66.7680000  73.8710000
  48.5640000  66.0910000  76.0930000  50.7760000  67.1370000  75.8670000
  48.5880000  66.4500000  73.4700000  50.3650000  67.3330000  73.0610000
  47.7510000  65.7740000  75.7200000  48.7440000  65.9890000  77.4800000
  51.7680000  67.7080000  75.0350000  50.9560000  67.0350000  77.2540000
  51.5900000  67.8090000  73.6600000  50.2010000  67.4590000  71.6380000
  47.7520000  65.4180000  78.3130000  49.9750000  66.4770000  78.0850000
  52.5740000  68.0290000  75.4240000  51.7690000  67.3520000  77.6270000
  52.5860000  68.3950000  72.7970000  49.4010000  67.1520000  71.2270000
  51.1800000  68.0100000  70.8770000  47.9310000  65.3170000  79.6870000
  46.9470000  65.0970000  77.9230000  50.1310000  66.3580000  79.4760000
  52.3880000  68.4920000  71.4610000  53.3950000  68.7190000  73.1720000
  51.0590000  68.0750000  69.9360000  46.9350000  64.7310000  80.5500000
  49.1550000  65.7930000  80.2860000  50.9320000  66.6750000  79.8770000
  53.0560000  68.8840000  70.9120000  47.1330000  64.6340000  81.8860000
  46.1250000  64.4070000  80.1750000  49.3190000  65.6670000  81.7090000
  48.3400000  65.1160000  82.4710000  46.4640000  64.2420000  82.4350000
  50.1190000  65.9740000  82.1210000  48.4610000  65.0510000  83.4110000
  47.5410000  53.5410000  19.0350000  47.3840000  53.6610000  17.6430000
  46.5590000  52.9840000  19.8660000  48.7710000  54.0290000  19.6390000
  46.5830000  53.3430000  17.2430000  48.3600000  54.2260000  16.8340000
  45.7460000  52.6670000  19.4930000  46.7390000  52.8820000  21.2530000
  49.7630000  54.6010000  18.8070000  48.9510000  53.9270000  21.0270000
  49.5850000  54.7020000  17.4320000  48.1960000  54.3510000  15.4110000
  45.7470000  52.3100000  22.0850000  47.9700000  53.3700000  21.8580000
  50.5690000  54.9220000  19.1970000  49.7640000  54.2440000  21.3990000
  50.5810000  55.2880000  16.5690000  47.3960000  54.0450000  14.9990000
  49.1750000  54.9020000  14.6490000  45.9260000  52.2090000  23.4600000
  44.9420000  51.9890000  21.6960000  48.1260000  53.2510000  23.2490000
  50.3830000  55.3850000  15.2340000  51.3900000  55.6120000  16.9450000
  49.0540000  54.9670000  13.7090000  44.9290000  51.6230000  24.3230000
  47.1500000  52.6850000  24.0590000  48.9270000  53.5680000  23.6500000
  51.0510000  55.7770000  14.6840000  45.1270000  51.5260000  25.6590000
  44.1200000  51.2990000  23.9480000  47.3140000  52.5600000  25.4810000
  46.3350000  52.0090000  26.2430000  44.4590000  51.1350000  26.2080000
  48.1140000  52.8660000  25.8930000  46.4560000  51.9440000  27.1840000
  48.5430000  60.0950000  47.1490000  48.3870000  60.2140000  45.7570000
  47.5620000  59.5380000  47.9790000  49.7740000  60.5830000  47.7530000
  47.5850000  59.8970000  45.3560000  49.3630000  60.7800000  44.9470000
  46.7480000  59.2200000  47.6070000  47.7410000  59.4360000  49.3670000
  50.7660000  61.1540000  46.9210000  49.9530000  60.4810000  49.1400000
  50.5870000  61.2560000  45.5460000  49.1990000  60.9050000  43.5250000
  46.7490000  58.8640000  50.1990000  48.9720000  59.9240000  49.9710000
  51.5710000  61.4760000  47.3100000  50.7670000  60.7980000  49.5130000
  51.5830000  61.8410000  44.6830000  48.3990000  60.5980000  43.1130000
  50.1780000  61.4560000  42.7630000  46.9280000  58.7630000  51.5740000
  45.9440000  58.5430000  49.8100000  49.1290000  59.8040000  51.3630000
  51.3850000  61.9390000  43.3480000  52.3930000  62.1650000  45.0580000
  50.0570000  61.5210000  41.8220000  45.9320000  58.1770000  52.4370000
  48.1530000  59.2390000  52.1730000  49.9300000  60.1220000  51.7630000
  52.0540000  62.3300000  42.7980000  46.1300000  58.0800000  53.7720000
  45.1220000  57.8530000  52.0610000  48.3160000  59.1140000  53.5950000
  47.3370000  58.5630000  54.3570000  45.4620000  57.6880000  54.3220000
  49.1160000  59.4200000  54.0070000  47.4590000  58.4980000  55.2970000
  49.4730000  63.2000000  64.0280000  49.6300000  63.0810000  65.4200000
  50.4550000  63.7580000  63.1970000  48.2430000  62.7120000  63.4240000
  50.4310000  63.3990000  65.8200000  48.6540000  62.5160000  66.2290000
  51.2680000  64.0750000  63.5700000  50.2750000  63.8600000  61.8100000
  47.2510000  62.1410000  64.2560000  48.0630000  62.8140000  62.0360000
  47.4290000  62.0400000  65.6300000  48.8180000  62.3900000  67.6520000
  51.2670000  64.4310000  60.9780000  49.0440000  63.3720000  61.2050000
  46.4450000  61.8200000  63.8660000  47.2500000  62.4970000  61.6640000
  46.4330000  61.4540000  66.4940000  49.6170000  62.6970000  68.0640000
  47.8390000  61.8390000  68.4140000  51.0880000  64.5320000  59.6030000
  52.0720000  64.7520000  61.3670000  48.8880000  63.4910000  59.8140000
  46.6310000  61.3570000  67.8290000  45.6230000  61.1300000  66.1180000
  47.9600000  61.7740000  69.3540000  52.0840000  65.1180000  58.7400000
  49.8640000  64.0560000  59.0040000  48.0870000  63.1740000  59.4130000
  45.9630000  60.9650000  68.3790000  51.8860000  65.2150000  57.4040000
  52.8940000  65.4420000  59.1150000  49.7000000  64.1820000  57.5820000
  50.6790000  64.7330000  56.8200000  52.5550000  65.6070000  56.8550000
  48.9000000  63.8750000  57.1700000  50.5580000  64.7980000  55.8790000
  48.4710000  56.6470000  35.9140000  48.6270000  56.5270000  37.3060000
  49.4520000  57.2040000  35.0840000  47.2400000  56.1590000  35.3100000
  49.4290000  56.8450000  37.7070000  47.6510000  55.9620000  38.1160000
  50.2650000  57.5210000  35.4560000  49.2730000  57.3060000  33.6960000
  46.2480000  55.5870000  36.1420000  47.0610000  56.2610000  33.9230000
  46.4270000  55.4860000  37.5170000  47.8150000  55.8370000  39.5380000
  50.2650000  57.8780000  32.8640000  48.0420000  56.8180000  33.0920000
  45.4430000  55.2660000  35.7530000  46.2470000  55.9440000  33.5500000
  45.4310000  54.9000000  38.3800000  48.6150000  56.1430000  39.9500000
  46.8360000  55.2860000  40.3000000  50.0860000  57.9790000  31.4890000
  51.0700000  58.1990000  33.2530000  47.8850000  56.9370000  31.7000000
  45.6290000  54.8030000  39.7150000  44.6210000  54.5760000  38.0050000
  46.9570000  55.2210000  41.2410000  51.0820000  58.5650000  30.6260000
  48.8610000  57.5030000  30.8900000  47.0840000  56.6200000  31.3000000
  44.9600000  54.4110000  40.2650000  50.8840000  58.6620000  29.2910000
  51.8920000  58.8890000  31.0020000  48.6970000  57.6280000  29.4680000
  49.6760000  58.1790000  28.7060000  51.5520000  59.0530000  28.7410000
  47.8980000  57.3220000  29.0560000  49.5550000  58.2440000  27.7660000
  50.4760000  69.7540000  92.1420000  50.6320000  69.6350000  93.5330000
  51.4570000  70.3110000  91.3110000  49.2450000  69.2660000  91.5370000
  51.4340000  69.9520000  93.9340000  49.6560000  69.0690000  94.3430000
  52.2710000  70.6290000  91.6830000  51.2780000  70.4130000  89.9230000
  48.2530000  68.6950000  92.3690000  49.0660000  69.3680000  90.1500000
  48.4320000  68.5930000  93.7440000  49.8200000  68.9440000  95.7650000
  52.2700000  70.9850000  89.0910000  50.0470000  69.9250000  89.3190000
  47.4480000  68.3730000  91.9800000  48.2520000  69.0510000  89.7770000
  47.4360000  68.0080000  94.6070000  50.6200000  69.2510000  96.1770000
  48.8410000  68.3930000  96.5270000  52.0910000  71.0860000  87.7170000
  53.0750000  71.3060000  89.4810000  49.8900000  70.0450000  87.9270000
  47.6340000  67.9100000  95.9430000  46.6260000  67.6840000  94.2320000
  48.9620000  68.3280000  97.4680000  53.0870000  71.6720000  86.8530000
  50.8660000  70.6100000  87.1180000  49.0890000  69.7270000  87.5270000
  46.9650000  67.5190000  96.4920000  52.8890000  71.7690000  85.5180000
  53.8970000  71.9960000  87.2290000  50.7030000  70.7350000  85.6950000
  51.6810000  71.2860000  84.9330000  53.5570000  72.1610000  84.9680000
  49.9030000  70.4290000  85.2830000  51.5600000  71.3510000  83.9930000
  48.2770000  61.2200000  19.0350000  48.1200000  61.3390000  17.6430000
  47.2950000  60.6630000  19.8660000  49.5070000  61.7080000  19.6390000
  47.3190000  61.0220000  17.2430000  49.0960000  61.9050000  16.8340000
  46.4820000  60.3450000  19.4930000  47.4750000  60.5610000  21.2530000
  50.4990000  62.2790000  18.8070000  49.6870000  61.6060000  21.0270000
  50.3210000  62.3800000  17.4320000  48.9320000  62.0300000  15.4110000
  46.4830000  59.9890000  22.0850000  48.7060000  61.0490000  21.8580000
  51.3050000  62.6000000  19.1970000  50.5000000  61.9230000  21.3990000
  51.3170000  62.9660000  16.5690000  48.1330000  61.7230000  14.9990000
  49.9110000  62.5810000  14.6490000  46.6620000  59.8880000  23.4600000
  45.6780000  59.6680000  21.6960000  48.8620000  60.9290000  23.2490000
  51.1190000  63.0640000  15.2340000  52.1270000  63.2900000  16.9450000
  49.7900000  62.6460000  13.7090000  45.6660000  59.3020000  24.3230000
  47.8860000  60.3640000  24.0590000  49.6630000  61.2470000  23.6500000
  51.7870000  63.4550000  14.6840000  45.8640000  59.2050000  25.6590000
  44.8560000  58.9780000  23.9480000  48.0500000  60.2390000  25.4810000
  47.0710000  59.6870000  26.2430000  45.1950000  58.8130000  26.2080000
  48.8500000  60.5450000  25.8930000  47.1920000  59.6230000  27.1840000
  49.2070000  64.3250000  35.9140000  49.3630000  64.2060000  37.3060000
  50.1880000  64.8830000  35.0840000  47.9760000  63.8370000  35.3100000
  50.1650000  64.5240000  37.7070000  48.3870000  63.6410000  38.1160000
  51.0020000  65.2000000  35.4560000  50.0090000  64.9850000  33.6960000
  46.9840000  63.2660000  36.1420000  47.7970000  63.9390000  33.9230000
  47.1630000  63.1650000  37.5170000  48.5510000  63.5150000  39.5380000
  51.0010000  65.5560000  32.8640000  48.7780000  64.4970000  33.0920000
  46.1790000  62.9450000  35.7530000  46.9830000  63.6220000  33.5500000
  46.1670000  62.5790000  38.3800000  49.3510000  63.8220000  39.9500000
  47.5720000  62.9640000  40.3000000  50.8220000  65.6570000  31.4890000
  51.8060000  65.8770000  33.2530000  48.6210000  64.6160000  31.7000000
  46.3650000  62.4820000  39.7150000  45.3570000  62.2550000  38.0050000
  47.6930000  62.8990000  41.2410000  51.8180000  66.2430000  30.6260000
  49.5970000  65.1810000  30.8900000  47.8200000  64.2980000  31.3000000
  45.6960000  62.0900000  40.2650000  51.6200000  66.3400000  29.2910000
  52.6280000  66.5670000  31.0020000  49.4340000  65.3070000  29.4680000
  50.4130000  65.8580000  28.7060000  52.2880000  66.7320000  28.7410000
  48.6340000  65.0000000  29.0560000  50.2910000  65.9230000  27.7660000
  49.2790000  67.7730000  47.1490000  49.1230000  67.8930000  45.7570000
  48.2980000  67.2160000  47.9790000  50.5100000  68.2610000  47.7530000
  48.3210000  67.5750000  45.3560000  50.0990000  68.4580000  44.9470000
  47.4850000  66.8990000  47.6070000  48.4770000  67.1140000  49.3670000
  51.5020000  68.8330000  46.9210000  50.6890000  68.1600000  49.1400000
  51.3230000  68.9340000  45.5460000  49.9350000  68.5830000  43.5250000
  47.4850000  66.5430000  50.1990000  49.7080000  67.6020000  49.9710000
  52.3070000  69.1540000  47.3100000  51.5030000  68.4770000  49.5130000
  52.3190000  69.5200000  44.6830000  49.1350000  68.2770000  43.1130000
  50.9140000  69.1350000  42.7630000  47.6640000  66.4420000  51.5740000
  46.6800000  66.2220000  49.8100000  49.8650000  67.4830000  51.3630000
  52.1210000  69.6170000  43.3480000  53.1290000  69.8440000  45.0580000
  50.7930000  69.1990000  41.8220000  46.6680000  65.8560000  52.4370000
  48.8890000  66.9170000  52.1730000  50.6660000  67.8000000  51.7630000
  52.7900000  70.0090000  42.7980000  46.8660000  65.7590000  53.7720000
  45.8580000  65.5320000  52.0610000  49.0530000  66.7920000  53.5950000
  48.0740000  66.2410000  54.3570000  46.1980000  65.3670000  54.3220000
  49.8520000  67.0990000  54.0070000  48.1950000  66.1760000  55.2970000
  50.7830000  77.6040000  89.3190000  50.6270000  77.7230000  87.9270000
  49.8020000  77.0470000  90.1500000  52.0140000  78.0920000  89.9230000
  49.8250000  77.4060000  87.5270000  51.6020000  78.2890000  87.1180000
  48.9880000  76.7290000  89.7770000  49.9810000  76.9450000  91.5370000
  53.0060000  78.6640000  89.0910000  52.1930000  77.9900000  91.3110000
  52.8270000  78.7650000  87.7170000  51.4390000  78.4140000  85.6950000
  48.9890000  76.3730000  92.3690000  51.2120000  77.4330000  92.1420000
  53.8110000  78.9850000  89.4810000  53.0070000  78.3070000  91.6830000
  53.8230000  79.3500000  86.8530000  50.6390000  78.1080000  85.2830000
  52.4180000  78.9650000  84.9330000  49.1680000  76.2720000  93.7440000
  48.1840000  76.0520000  91.9800000  51.3680000  77.3130000  93.5330000
  53.6250000  79.4480000  85.5180000  54.6330000  79.6740000  87.2290000
  52.2960000  79.0300000  83.9930000  48.1720000  75.6860000  94.6070000
  50.3920000  76.7480000  94.3430000  52.1700000  77.6310000  93.9340000
  54.2930000  79.8390000  84.9680000  48.3700000  75.5890000  95.9430000
  47.3620000  75.3620000  94.2320000  50.5560000  76.6230000  95.7650000
  49.5770000  76.0720000  96.5270000  47.7010000  75.1970000  96.4920000
  51.3560000  76.9290000  96.1770000  49.6980000  76.0070000  97.4680000
  49.7800000  71.0500000  61.2050000  49.6240000  71.1700000  59.8140000
  48.7990000  70.4930000  62.0360000  51.0110000  71.5380000  61.8100000
  48.8230000  70.8520000  59.4130000  50.6000000  71.7350000  59.0040000
  47.9860000  70.1760000  61.6640000  48.9790000  70.3910000  63.4240000
  52.0030000  72.1100000  60.9780000  51.1910000  71.4360000  63.1970000
  51.8240000  72.2110000  59.6030000  50.4360000  71.8600000  57.5820000
  47.9870000  69.8190000  64.2560000  50.2090000  70.8790000  64.0280000
  52.8080000  72.4310000  61.3670000  52.0040000  71.7540000  63.5700000
  52.8200000  72.7970000  58.7400000  49.6360000  71.5540000  57.1700000
  51.4150000  72.4110000  56.8200000  48.1650000  69.7180000  65.6300000
  47.1810000  69.4980000  63.8660000  50.3660000  70.7600000  65.4200000
  52.6230000  72.8940000  57.4040000  53.6300000  73.1210000  59.1150000
  51.2940000  72.4760000  55.8790000  47.1690000  69.1330000  66.4940000
  49.3900000  70.1940000  66.2290000  51.1670000  71.0770000  65.8200000
  53.2910000  73.2860000  56.8550000  47.3670000  69.0350000  67.8290000
  46.3600000  68.8090000  66.1180000  49.5540000  70.0690000  67.6520000
  48.5750000  69.5180000  68.4140000  46.6990000  68.6440000  68.3790000
  50.3540000  70.3750000  68.0640000  48.6960000  69.4530000  69.3540000
  50.2820000  74.3270000  75.2620000  50.1250000  74.4470000  73.8710000
  49.3010000  73.7700000  76.0930000  51.5130000  74.8150000  75.8670000
  49.3240000  74.1290000  73.4700000  51.1010000  75.0120000  73.0610000
  48.4870000  73.4530000  75.7200000  49.4800000  73.6680000  77.4800000
  52.5040000  75.3870000  75.0350000  51.6920000  74.7130000  77.2540000
  52.3260000  75.4880000  73.6600000  50.9370000  75.1370000  71.6380000
  48.4880000  73.0960000  78.3130000  50.7110000  74.1560000  78.0850000
  53.3100000  75.7080000  75.4240000  52.5050000  75.0300000  77.6270000
  53.3220000  76.0740000  72.7970000  50.1380000  74.8310000  71.2270000
  51.9160000  75.6880000  70.8770000  48.6670000  72.9950000  79.6870000
  47.6830000  72.7750000  77.9230000  50.8670000  74.0360000  79.4760000
  53.1240000  76.1710000  71.4610000  54.1320000  76.3980000  73.1720000
  51.7950000  75.7530000  69.9360000  47.6710000  72.4090000  80.5500000
  49.8910000  73.4710000  80.2860000  51.6690000  74.3540000  79.8770000
  53.7920000  76.5630000  70.9120000  47.8690000  72.3120000  81.8860000
  46.8610000  72.0850000  80.1750000  50.0550000  73.3460000  81.7090000
  49.0760000  72.7950000  82.4710000  47.2000000  71.9200000  82.4350000
  50.8550000  73.6520000  82.1210000  49.1970000  72.7300000  83.4110000
  49.4420000  68.7270000  21.8580000  49.5980000  68.6080000  23.2490000
  50.4230000  69.2840000  21.0270000  48.2110000  68.2390000  21.2530000
  50.4000000  68.9250000  23.6500000  48.6220000  68.0420000  24.0590000
  51.2360000  69.6020000  21.3990000  50.2440000  69.3860000  19.6390000
  47.2190000  67.6680000  22.0850000  48.0320000  68.3410000  19.8660000
  47.3980000  67.5670000  23.4600000  48.7860000  67.9170000  25.4810000
  51.2350000  69.9580000  18.8070000  49.0130000  68.8980000  19.0350000
  46.4140000  67.3460000  21.6960000  47.2180000  68.0240000  19.4930000
  46.4020000  66.9810000  24.3230000  49.5860000  68.2240000  25.8930000
  47.8070000  67.3660000  26.2430000  51.0570000  70.0590000  17.4320000
  52.0410000  70.2790000  19.1970000  48.8560000  69.0180000  17.6430000
  46.6000000  66.8830000  25.6590000  45.5920000  66.6570000  23.9480000
  47.9280000  67.3010000  27.1840000  52.0530000  70.6450000  16.5690000
  49.8320000  69.5830000  16.8340000  48.0550000  68.7000000  17.2430000
  45.9310000  66.4920000  26.2080000  51.8550000  70.7420000  15.2340000
  52.8630000  70.9690000  16.9450000  49.6680000  69.7080000  15.4110000
  50.6470000  70.2590000  14.6490000  52.5230000  71.1340000  14.6840000
  48.8690000  69.4020000  14.9990000  50.5260000  70.3240000  13.7090000
  49.9430000  72.0040000  35.9140000  50.0990000  71.8850000  37.3060000
  50.9240000  72.5610000  35.0840000  48.7120000  71.5160000  35.3100000
  50.9010000  72.2020000  37.7070000  49.1240000  71.3190000  38.1160000
  51.7380000  72.8780000  35.4560000  50.7450000  72.6630000  33.6960000
  47.7200000  70.9440000  36.1420000  48.5330000  71.6180000  33.9230000
  47.8990000  70.8430000  37.5170000  49.2870000  71.1940000  39.5380000
  51.7370000  73.2350000  32.8640000  49.5140000  72.1750000  33.0920000
  46.9150000  70.6230000  35.7530000  47.7190000  71.3010000  33.5500000
  46.9030000  70.2570000  38.3800000  50.0870000  71.5000000  39.9500000
  48.3080000  70.6430000  40.3000000  51.5580000  73.3360000  31.4890000
  52.5420000  73.5560000  33.2530000  49.3580000  72.2950000  31.7000000
  47.1010000  70.1600000  39.7150000  46.0930000  69.9330000  38.0050000
  48.4300000  70.5780000  41.2410000  52.5540000  73.9220000  30.6260000
  50.3340000  72.8600000  30.8900000  48.5560000  71.9770000  31.3000000
  46.4330000  69.7690000  40.2650000  52.3560000  74.0190000  29.2910000
  53.3640000  74.2460000  31.0020000  50.1700000  72.9850000  29.4680000
  51.1490000  73.5360000  28.7060000  53.0250000  74.4110000  28.7410000
  49.3700000  72.6790000  29.0560000  51.0280000  73.6010000  27.7660000
  50.0150000  75.4520000  47.1490000  49.8590000  75.5720000  45.7570000
  49.0340000  74.8950000  47.9790000  51.2460000  75.9400000  47.7530000
  49.0570000  75.2540000  45.3560000  50.8350000  76.1370000  44.9470000
  48.2210000  74.5780000  47.6070000  49.2140000  74.7930000  49.3670000
  52.2380000  76.5120000  46.9210000  51.4250000  75.8380000  49.1400000
  52.0590000  76.6130000  45.5460000  50.6710000  76.2620000  43.5250000
  48.2220000  74.2210000  50.1990000  50.4440000  75.2810000  49.9710000
  53.0430000  76.8330000  47.3100000  52.2390000  76.1550000  49.5130000
  53.0550000  77.1990000  44.6830000  49.8710000  75.9560000  43.1130000
  51.6500000  76.8130000  42.7630000  48.4000000  74.1200000  51.5740000
  47.4160000  73.9000000  49.8100000  50.6010000  75.1610000  51.3630000
  52.8570000  77.2960000  43.3480000  53.8650000  77.5230000  45.0580000
  51.5290000  76.8780000  41.8220000  47.4040000  73.5340000  52.4370000
  49.6250000  74.5960000  52.1730000  51.4020000  75.4790000  51.7630000
  53.5260000  77.6870000  42.7980000  47.6020000  73.4370000  53.7720000
  46.5940000  73.2100000  52.0610000  49.7890000  74.4710000  53.5950000
  48.8100000  73.9200000  54.3570000  46.9340000  73.0450000  54.3220000
  50.5880000  74.7770000  54.0070000  48.9310000  73.8550000  55.2970000
  51.0180000  82.0060000  75.2620000  50.8610000  82.1250000  73.8710000
  50.0370000  81.4480000  76.0930000  52.2490000  82.4940000  75.8670000
  50.0600000  81.8080000  73.4700000  51.8370000  82.6900000  73.0610000
  49.2230000  81.1310000  75.7200000  50.2160000  81.3460000  77.4800000
  53.2410000  83.0650000  75.0350000  52.4280000  82.3920000  77.2540000
  53.0620000  83.1660000  73.6600000  51.6730000  82.8160000  71.6380000
  49.2240000  80.7750000  78.3130000  51.4470000  81.8340000  78.0850000
  54.0460000  83.3860000  75.4240000  53.2420000  82.7090000  77.6270000
  54.0580000  83.7520000  72.7970000  50.8740000  82.5090000  71.2270000
  52.6520000  83.3670000  70.8770000  49.4030000  80.6740000  79.6870000
  48.4190000  80.4540000  77.9230000  51.6030000  81.7150000  79.4760000
  53.8600000  83.8490000  71.4610000  54.8680000  84.0760000  73.1720000
  52.5310000  83.4320000  69.9360000  48.4070000  80.0880000  80.5500000
  50.6270000  81.1500000  80.2860000  52.4050000  82.0330000  79.8770000
  54.5280000  84.2410000  70.9120000  48.6050000  79.9910000  81.8860000
  47.5970000  79.7640000  80.1750000  50.7910000  81.0240000  81.7090000
  49.8120000  80.4730000  82.4710000  47.9360000  79.5990000  82.4350000
  51.5910000  81.3310000  82.1210000  49.9330000  80.4090000  83.4110000
  51.5190000  85.2830000  89.3190000  51.3630000  85.4020000  87.9270000
  50.5380000  84.7250000  90.1500000  52.7500000  85.7710000  89.9230000
  50.5610000  85.0840000  87.5270000  52.3390000  85.9670000  87.1180000
  49.7240000  84.4080000  89.7770000  50.7170000  84.6230000  91.5370000
  53.7420000  86.3420000  89.0910000  52.9290000  85.6690000  91.3110000
  53.5630000  86.4430000  87.7170000  52.1750000  86.0930000  85.6950000
  49.7250000  84.0520000  92.3690000  51.9480000  85.1110000  92.1420000
  54.5470000  86.6630000  89.4810000  53.7430000  85.9860000  91.6830000
  54.5590000  87.0290000  86.8530000  51.3750000  85.7860000  85.2830000
  53.1540000  86.6440000  84.9330000  49.9040000  83.9510000  93.7440000
  48.9200000  83.7310000  91.9800000  52.1050000  84.9920000  93.5330000
  54.3610000  87.1260000  85.5180000  55.3690000  87.3530000  87.2290000
  53.0330000  86.7090000  83.9930000  48.9080000  83.3650000  94.6070000
  51.1290000  84.4270000  94.3430000  52.9060000  85.3090000  93.9340000
  55.0300000  87.5180000  84.9680000  49.1060000  83.2680000  95.9430000
  48.0980000  83.0410000  94.2320000  51.2920000  84.3010000  95.7650000
  50.3130000  83.7500000  96.5270000  48.4380000  82.8760000  96.4920000
  52.0920000  84.6080000  96.1770000  50.4350000  83.6850000  97.4680000
  50.9460000  78.5580000  64.0280000  51.1020000  78.4380000  65.4200000
  51.9270000  79.1150000  63.1970000  49.7150000  78.0700000  63.4240000
  51.9030000  78.7560000  65.8200000  50.1260000  77.8730000  66.2290000
  52.7400000  79.4320000  63.5700000  51.7470000  79.2170000  61.8100000
  48.7230000  77.4980000  64.2560000  49.5350000  78.1720000  62.0360000
  48.9020000  77.3970000  65.6300000  50.2900000  77.7480000  67.6520000
  52.7390000  79.7880000  60.9780000  50.5170000  78.7290000  61.2050000
  47.9180000  77.1770000  63.8660000  48.7220000  77.8540000  61.6640000
  47.9060000  76.8110000  66.4940000  51.0900000  78.0540000  68.0640000
  49.3110000  77.1970000  68.4140000  52.5610000  79.8900000  59.6030000
  53.5450000  80.1100000  61.3670000  50.3600000  78.8480000  59.8140000
  48.1030000  76.7140000  67.8290000  47.0960000  76.4870000  66.1180000
  49.4320000  77.1320000  69.3540000  53.5570000  80.4750000  58.7400000
  51.3360000  79.4140000  59.0040000  49.5590000  78.5310000  59.4130000
  47.4350000  76.3220000  68.3790000  53.3590000  80.5730000  57.4040000
  54.3660000  80.7990000  59.1150000  51.1720000  79.5390000  57.5820000
  52.1510000  80.0900000  56.8200000  54.0270000  80.9640000  56.8550000
  50.3720000  79.2320000  57.1700000  52.0300000  80.1550000  55.8790000
  50.1780000  76.4060000  21.8580000  50.3340000  76.2860000  23.2490000
  51.1590000  76.9630000  21.0270000  48.9470000  75.9180000  21.2530000
  51.1360000  76.6040000  23.6500000  49.3580000  75.7210000  24.0590000
  51.9730000  77.2800000  21.3990000  50.9800000  77.0650000  19.6390000
  47.9550000  75.3460000  22.0850000  48.7680000  76.0200000  19.8660000
  48.1340000  75.2450000  23.4600000  49.5220000  75.5960000  25.4810000
  51.9720000  77.6370000  18.8070000  49.7490000  76.5770000  19.0350000
  47.1500000  75.0250000  21.6960000  47.9540000  75.7030000  19.4930000
  47.1380000  74.6590000  24.3230000  50.3220000  75.9020000  25.8930000
  48.5430000  75.0450000  26.2430000  51.7930000  77.7380000  17.4320000
  52.7770000  77.9580000  19.1970000  49.5920000  76.6960000  17.6430000
  47.3360000  74.5620000  25.6590000  46.3280000  74.3350000  23.9480000
  48.6640000  74.9800000  27.1840000  52.7890000  78.3240000  16.5690000
  50.5680000  77.2620000  16.8340000  48.7910000  76.3790000  17.2430000
  46.6670000  74.1700000  26.2080000  52.5910000  78.4210000  15.2340000
  53.5990000  78.6470000  16.9450000  50.4050000  77.3870000  15.4110000
  51.3840000  77.9380000  14.6490000  53.2590000  78.8120000  14.6840000
  49.6050000  77.0810000  14.9990000  51.2620000  78.0030000  13.7090000
  50.2500000  79.8540000  33.0920000  50.0940000  79.9730000  31.7000000
  49.2690000  79.2970000  33.9230000  51.4810000  80.3420000  33.6960000
  49.2920000  79.6560000  31.3000000  51.0700000  80.5390000  30.8900000
  48.4550000  78.9790000  33.5500000  49.4480000  79.1950000  35.3100000
  52.4730000  80.9130000  32.8640000  51.6600000  80.2400000  35.0840000
  52.2940000  81.0140000  31.4890000  50.9060000  80.6640000  29.4680000
  48.4560000  78.6230000  36.1420000  50.6790000  79.6830000  35.9140000
  53.2780000  81.2350000  33.2530000  52.4740000  80.5570000  35.4560000
  53.2900000  81.6000000  30.6260000  50.1060000  80.3570000  29.0560000
  51.8850000  81.2150000  28.7060000  48.6350000  78.5220000  37.5170000
  47.6510000  78.3020000  35.7530000  50.8360000  79.5630000  37.3060000
  53.0920000  81.6980000  29.2910000  54.1000000  81.9240000  31.0020000
  51.7640000  81.2800000  27.7660000  47.6390000  77.9360000  38.3800000
  49.8600000  78.9980000  38.1160000  51.6370000  79.8810000  37.7070000
  53.7610000  82.0890000  28.7410000  47.8370000  77.8390000  39.7150000
  46.8290000  77.6120000  38.0050000  50.0240000  78.8730000  39.5380000
  49.0450000  78.3210000  40.3000000  47.1690000  77.4470000  40.2650000
  50.8230000  79.1790000  39.9500000  49.1660000  78.2570000  41.2410000
  50.7510000  83.1310000  47.1490000  50.5950000  83.2500000  45.7570000
  49.7700000  82.5730000  47.9790000  51.9820000  83.6190000  47.7530000
  49.7940000  82.9320000  45.3560000  51.5710000  83.8150000  44.9470000
  48.9570000  82.2560000  47.6070000  49.9500000  82.4710000  49.3670000
  52.9740000  84.1900000  46.9210000  52.1620000  83.5170000  49.1400000
  52.7950000  84.2910000  45.5460000  51.4070000  83.9410000  43.5250000
  48.9580000  81.9000000  50.1990000  51.1800000  82.9590000  49.9710000
  53.7790000  84.5110000  47.3100000  52.9750000  83.8340000  49.5130000
  53.7910000  84.8770000  44.6830000  50.6070000  83.6340000  43.1130000
  52.3860000  84.4920000  42.7630000  49.1360000  81.7990000  51.5740000
  48.1520000  81.5790000  49.8100000  51.3370000  82.8400000  51.3630000
  53.5930000  84.9740000  43.3480000  54.6010000  85.2010000  45.0580000
  52.2650000  84.5570000  41.8220000  48.1400000  81.2130000  52.4370000
  50.3610000  82.2750000  52.1730000  52.1380000  83.1580000  51.7630000
  54.2620000  85.3660000  42.7980000  48.3380000  81.1160000  53.7720000
  47.3310000  80.8890000  52.0610000  50.5250000  82.1490000  53.5950000
  49.5460000  81.5980000  54.3570000  47.6700000  80.7240000  54.3220000
  51.3250000  82.4560000  54.0070000  49.6670000  81.5330000  55.2970000
  51.2530000  86.4080000  61.2050000  51.0960000  86.5270000  59.8140000
  50.2720000  85.8500000  62.0360000  52.4830000  86.8950000  61.8100000
  50.2950000  86.2090000  59.4130000  52.0720000  87.0920000  59.0040000
  49.4580000  85.5330000  61.6640000  50.4510000  85.7480000  63.4240000
  53.4750000  87.4670000  60.9780000  52.6630000  86.7940000  63.1970000
  53.2970000  87.5680000  59.6030000  51.9080000  87.2170000  57.5820000
  49.4590000  85.1770000  64.2560000  51.6820000  86.2360000  64.0280000
  54.2810000  87.7880000  61.3670000  53.4760000  87.1110000  63.5700000
  54.2930000  88.1540000  58.7400000  51.1090000  86.9110000  57.1700000
  52.8870000  87.7690000  56.8200000  49.6380000  85.0760000  65.6300000
  48.6540000  84.8560000  63.8660000  51.8380000  86.1170000  65.4200000
  54.0950000  88.2510000  57.4040000  55.1030000  88.4780000  59.1150000
  52.7660000  87.8330000  55.8790000  48.6420000  84.4900000  66.4940000
  50.8620000  85.5520000  66.2290000  52.6400000  86.4340000  65.8200000
  54.7630000  88.6430000  56.8550000  48.8400000  84.3930000  67.8290000
  47.8320000  84.1660000  66.1180000  51.0260000  85.4260000  67.6520000
  50.0470000  84.8750000  68.4140000  48.1710000  84.0010000  68.3790000
  51.8260000  85.7330000  68.0640000  50.1680000  84.8100000  69.3540000
  52.1830000  89.5130000  78.0850000  52.3390000  89.3940000  79.4760000
  53.1640000  90.0700000  77.2540000  50.9520000  89.0250000  77.4800000
  53.1410000  89.7110000  79.8770000  51.3630000  88.8280000  80.2860000
  53.9780000  90.3880000  77.6270000  52.9850000  90.1720000  75.8670000
  49.9600000  88.4540000  78.3130000  50.7730000  89.1270000  76.0930000
  50.1390000  88.3520000  79.6870000  51.5270000  88.7030000  81.7090000
  53.9770000  90.7440000  75.0350000  51.7540000  89.6840000  75.2620000
  49.1550000  88.1320000  77.9230000  49.9590000  88.8100000  75.7200000
  49.1430000  87.7670000  80.5500000  52.3270000  89.0090000  82.1210000
  50.5480000  88.1520000  82.4710000  53.7980000  90.8450000  73.6600000
  54.7820000  91.0650000  75.4240000  51.5970000  89.8040000  73.8710000
  49.3410000  87.6690000  81.8860000  48.3330000  87.4430000  80.1750000
  50.6690000  88.0870000  83.4110000  54.7940000  91.4310000  72.7970000
  52.5730000  90.3690000  73.0610000  50.7960000  89.4860000  73.4700000
  48.6720000  87.2780000  82.4350000  54.5960000  91.5280000  71.4610000
  55.6040000  91.7550000  73.1720000  52.4100000  90.4940000  71.6380000
  53.3890000  91.0450000  70.8770000  55.2640000  91.9200000  70.9120000
  51.6100000  90.1880000  71.2270000  53.2670000  91.1100000  69.9360000
  52.2550000  92.9610000  89.3190000  52.0990000  93.0810000  87.9270000
  51.2740000  92.4040000  90.1500000  53.4860000  93.4490000  89.9230000
  51.2970000  92.7630000  87.5270000  53.0750000  93.6460000  87.1180000
  50.4610000  92.0870000  89.7770000  51.4530000  92.3020000  91.5370000
  54.4780000  94.0210000  89.0910000  53.6650000  93.3470000  91.3110000
  54.2990000  94.1220000  87.7170000  52.9110000  93.7710000  85.6950000
  50.4610000  91.7300000  92.3690000  52.6840000  92.7900000  92.1420000
  55.2830000  94.3420000  89.4810000  54.4790000  93.6640000  91.6830000
  55.2950000  94.7080000  86.8530000  52.1110000  93.4650000  85.2830000
  53.8900000  94.3220000  84.9330000  50.6400000  91.6290000  93.7440000
  49.6560000  91.4090000  91.9800000  52.8410000  92.6700000  93.5330000
  55.0970000  94.8050000  85.5180000  56.1050000  95.0320000  87.2290000
  53.7690000  94.3870000  83.9930000  49.6440000  91.0430000  94.6070000
  51.8650000  92.1050000  94.3430000  53.6420000  92.9880000  93.9340000
  55.7660000  95.1970000  84.9680000  49.8420000  90.9460000  95.9430000
  48.8340000  90.7190000  94.2320000  52.0290000  91.9800000  95.7650000
  51.0500000  91.4290000  96.5270000  49.1740000  90.5540000  96.4920000
  52.8280000  92.2860000  96.1770000  51.1710000  91.3640000  97.4680000
  50.9140000  84.0840000  21.8580000  51.0700000  83.9650000  23.2490000
  51.8950000  84.6420000  21.0270000  49.6830000  83.5960000  21.2530000
  51.8720000  84.2830000  23.6500000  50.0950000  83.4000000  24.0590000
  52.7090000  84.9590000  21.3990000  51.7160000  84.7440000  19.6390000
  48.6910000  83.0250000  22.0850000  49.5040000  83.6980000  19.8660000
  48.8700000  82.9240000  23.4600000  50.2580000  83.2740000  25.4810000
  52.7080000  85.3150000  18.8070000  50.4850000  84.2560000  19.0350000
  47.8860000  82.7040000  21.6960000  48.6900000  83.3810000  19.4930000
  47.8740000  82.3380000  24.3230000  51.0580000  83.5810000  25.8930000
  49.2790000  82.7230000  26.2430000  52.5290000  85.4160000  17.4320000
  53.5130000  85.6360000  19.1970000  50.3290000  84.3750000  17.6430000
  48.0720000  82.2410000  25.6590000  47.0640000  82.0140000  23.9480000
  49.4010000  82.6580000  27.1840000  53.5250000  86.0020000  16.5690000
  51.3040000  84.9400000  16.8340000  49.5270000  84.0570000  17.2430000
  47.4040000  81.8490000  26.2080000  53.3270000  86.0990000  15.2340000
  54.3350000  86.3260000  16.9450000  51.1410000  85.0660000  15.4110000
  52.1200000  85.6170000  14.6490000  53.9960000  86.4910000  14.6840000
  50.3410000  84.7590000  14.9990000  51.9990000  85.6820000  13.7090000
  50.9860000  87.5320000  33.0920000  50.8300000  87.6520000  31.7000000
  50.0050000  86.9750000  33.9230000  52.2170000  88.0200000  33.6960000
  50.0280000  87.3340000  31.3000000  51.8060000  88.2170000  30.8900000
  49.1920000  86.6580000  33.5500000  50.1840000  86.8730000  35.3100000
  53.2090000  88.5920000  32.8640000  52.3960000  87.9180000  35.0840000
  53.0300000  88.6930000  31.4890000  51.6420000  88.3420000  29.4680000
  49.1930000  86.3020000  36.1420000  51.4150000  87.3610000  35.9140000
  54.0140000  88.9130000  33.2530000  53.2100000  88.2360000  35.4560000
  54.0260000  89.2790000  30.6260000  50.8420000  88.0360000  29.0560000
  52.6210000  88.8940000  28.7060000  49.3710000  86.2010000  37.5170000
  48.3870000  85.9800000  35.7530000  51.5720000  87.2420000  37.3060000
  53.8280000  89.3760000  29.2910000  54.8360000  89.6030000  31.0020000
  52.5000000  88.9580000  27.7660000  48.3750000  85.6150000  38.3800000
  50.5960000  86.6760000  38.1160000  52.3730000  87.5590000  37.7070000
  54.4970000  89.7680000  28.7410000  48.5730000  85.5170000  39.7150000
  47.5650000  85.2910000  38.0050000  50.7600000  86.5510000  39.5380000
  49.7810000  86.0000000  40.3000000  47.9050000  85.1260000  40.2650000
  51.5590000  86.8580000  39.9500000  49.9020000  85.9350000  41.2410000
  52.4180000  93.9150000  64.0280000  52.5740000  93.7950000  65.4200000
  53.3990000  94.4720000  63.1970000  51.1870000  93.4270000  63.4240000
  53.3760000  94.1130000  65.8200000  51.5980000  93.2300000  66.2290000
  54.2120000  94.7890000  63.5700000  53.2200000  94.5740000  61.8100000
  50.1950000  92.8550000  64.2560000  51.0080000  93.5290000  62.0360000
  50.3740000  92.7540000  65.6300000  51.7620000  93.1050000  67.6520000
  54.2120000  95.1460000  60.9780000  51.9890000  94.0860000  61.2050000
  49.3900000  92.5340000  63.8660000  50.1940000  93.2120000  61.6640000
  49.3780000  92.1680000  66.4940000  52.5620000  93.4110000  68.0640000
  50.7830000  92.5540000  68.4140000  54.0330000  95.2470000  59.6030000
  55.0170000  95.4670000  61.3670000  51.8320000  94.2060000  59.8140000
  49.5760000  92.0710000  67.8290000  48.5680000  91.8440000  66.1180000
  50.9040000  92.4890000  69.3540000  55.0290000  95.8330000  58.7400000
  52.8080000  94.7710000  59.0040000  51.0310000  93.8880000  59.4130000
  48.9070000  91.6790000  68.3790000  54.8310000  95.9300000  57.4040000
  55.8390000  96.1570000  59.1150000  52.6440000  94.8960000  57.5820000
  53.6230000  95.4470000  56.8200000  55.4990000  96.3220000  56.8550000
  51.8450000  94.5900000  57.1700000  53.5020000  95.5120000  55.8790000
  52.4900000  97.3630000  75.2620000  52.3340000  97.4820000  73.8710000
  51.5090000  96.8060000  76.0930000  53.7210000  97.8510000  75.8670000
  51.5320000  97.1650000  73.4700000  53.3100000  98.0480000  73.0610000
  50.6950000  96.4880000  75.7200000  51.6880000  96.7040000  77.4800000
  54.7130000  98.4220000  75.0350000  53.9000000  97.7490000  77.2540000
  54.5340000  98.5240000  73.6600000  53.1460000  98.1730000  71.6380000
  50.6960000  96.1320000  78.3130000  52.9190000  97.1920000  78.0850000
  55.5180000  98.7440000  75.4240000  54.7140000  98.0660000  77.6270000
  55.5300000  99.1090000  72.7970000  52.3460000  97.8670000  71.2270000
  54.1250000  98.7240000  70.8770000  50.8750000  96.0310000  79.6870000
  49.8910000  95.8110000  77.9230000  53.0760000  97.0720000  79.4760000
  55.3320000  99.2070000  71.4610000  56.3400000  99.4330000  73.1720000
  54.0040000  98.7890000  69.9360000  49.8790000  95.4450000  80.5500000
  52.1000000  96.5070000  80.2860000  53.8770000  97.3900000  79.8770000
  56.0010000  99.5980000  70.9120000  50.0770000  95.3480000  81.8860000
  49.0690000  95.1210000  80.1750000  52.2630000  96.3820000  81.7090000
  51.2840000  95.8310000  82.4710000  49.4090000  94.9560000  82.4350000
  53.0630000  96.6880000  82.1210000  51.4060000  95.7660000  83.4110000
  53.4200000 100.4680000  92.1420000  53.5770000 100.3490000  93.5330000
  54.4020000 101.0260000  91.3110000  52.1900000  99.9810000  91.5370000
  54.3780000 100.6670000  93.9340000  52.6010000  99.7840000  94.3430000
  55.2150000 101.3430000  91.6830000  54.2220000 101.1280000  89.9230000
  51.1980000  99.4090000  92.3690000  52.0100000 100.0820000  90.1500000
  51.3760000  99.3080000  93.7440000  52.7650000  99.6590000  95.7650000
  55.2140000 101.6990000  89.0910000  52.9910000 100.6400000  89.3190000
  50.3920000  99.0880000  91.9800000  51.1970000  99.7650000  89.7770000
  50.3800000  98.7220000  94.6070000  53.5640000  99.9650000  96.1770000
  51.7860000  99.1070000  96.5270000  55.0350000 101.8000000  87.7170000
  56.0190000 102.0200000  89.4810000  52.8350000 100.7590000  87.9270000
  50.5780000  98.6250000  95.9430000  49.5700000  98.3980000  94.2320000
  51.9070000  99.0430000  97.4680000  56.0310000 102.3860000  86.8530000
  53.8110000 101.3240000  87.1180000  52.0340000 100.4420000  87.5270000
  49.9100000  98.2330000  96.4920000  55.8330000 102.4830000  85.5180000
  56.8410000 102.7100000  87.2290000  53.6470000 101.4500000  85.6950000
  54.6260000 102.0010000  84.9330000  56.5020000 102.8750000  84.9680000
  52.8470000 101.1430000  85.2830000  54.5050000 102.0660000  83.9930000
  51.4880000  90.8090000  47.1490000  51.3310000  90.9290000  45.7570000
  50.5060000  90.2520000  47.9790000  52.7180000  91.2970000  47.7530000
  50.5300000  90.6110000  45.3560000  52.3070000  91.4940000  44.9470000
  49.6930000  89.9350000  47.6070000  50.6860000  90.1500000  49.3670000
  53.7100000  91.8690000  46.9210000  52.8980000  91.1950000  49.1400000
  53.5320000  91.9700000  45.5460000  52.1430000  91.6190000  43.5250000
  49.6940000  89.5780000  50.1990000  51.9170000  90.6380000  49.9710000
  54.5160000  92.1900000  47.3100000  53.7110000  91.5120000  49.5130000
  54.5280000  92.5560000  44.6830000  51.3430000  91.3130000  43.1130000
  53.1220000  92.1700000  42.7630000  49.8730000  89.4770000  51.5740000
  48.8890000  89.2570000  49.8100000  52.0730000  90.5190000  51.3630000
  54.3300000  92.6530000  43.3480000  55.3370000  92.8800000  45.0580000
  53.0010000  92.2350000  41.8220000  48.8760000  88.8920000  52.4370000
  51.0970000  89.9530000  52.1730000  52.8740000  90.8360000  51.7630000
  54.9980000  93.0450000  42.7980000  49.0740000  88.7940000  53.7720000
  48.0670000  88.5680000  52.0610000  51.2610000  89.8280000  53.5950000
  50.2820000  89.2770000  54.3570000  48.4060000  88.4030000  54.3220000
  52.0610000  90.1340000  54.0070000  50.4030000  89.2120000  55.2970000
  42.6230000   4.1930000   4.9780000  42.4660000   4.3120000   3.5870000
  41.6410000   3.6360000   5.8090000  43.8530000   4.6810000   5.5830000
  41.6650000   3.9950000   3.1860000  43.4420000   4.8780000   2.7770000
  40.8280000   3.3180000   5.4360000  41.8210000   3.5340000   7.1960000
  44.8450000   5.2520000   4.7500000  44.0330000   4.5790000   6.9700000
  44.6670000   5.3530000   3.3760000  43.2780000   5.0030000   1.3540000
  40.8290000   2.9620000   8.0280000  43.0520000   4.0220000   7.8010000
  45.6510000   5.5730000   5.1400000  44.8460000   4.8960000   7.3430000
  45.6630000   5.9390000   2.5130000  42.4780000   4.6960000   0.9420000
  44.2570000   5.5540000   0.5920000  41.0080000   2.8610000   9.4030000
  40.0240000   2.6410000   7.6390000  43.2080000   3.9020000   9.1920000
  45.4650000   6.0370000   1.1770000  46.4720000   6.2630000   2.8880000
  44.1360000   5.6190000  -0.3480000  40.0120000   2.2750000  10.2660000
  42.2320000   3.3370000  10.0020000  44.0090000   4.2200000   9.5930000
  46.1330000   6.4280000   0.6280000  40.2090000   2.1780000  11.6020000
  39.2020000   1.9510000   9.8910000  42.3960000   3.2120000  11.4250000
  41.4170000   2.6600000  12.1860000  39.5410000   1.7860000  12.1510000
  43.1960000   3.5180000  11.8360000  41.5380000   2.5960000  13.1270000
  43.3590000  11.8710000   4.9780000  43.2020000  11.9910000   3.5870000
  42.3780000  11.3140000   5.8090000  44.5890000  12.3590000   5.5830000
  42.4010000  11.6730000   3.1860000  44.1780000  12.5560000   2.7770000
  41.5640000  10.9970000   5.4360000  42.5570000  11.2120000   7.1960000
  45.5810000  12.9310000   4.7500000  44.7690000  12.2570000   6.9700000
  45.4030000  13.0320000   3.3760000  44.0140000  12.6810000   1.3540000
  41.5650000  10.6410000   8.0280000  43.7880000  11.7000000   7.8010000
  46.3870000  13.2520000   5.1400000  45.5820000  12.5750000   7.3430000
  46.3990000  13.6180000   2.5130000  43.2150000  12.3750000   0.9420000
  44.9930000  13.2320000   0.5920000  41.7440000  10.5390000   9.4030000
  40.7600000  10.3190000   7.6390000  43.9440000  11.5810000   9.1920000
  46.2010000  13.7150000   1.1770000  47.2090000  13.9420000   2.8880000
  44.8720000  13.2970000  -0.3480000  40.7480000   9.9540000  10.2660000
  42.9680000  11.0150000  10.0020000  44.7460000  11.8980000   9.5930000
  46.8690000  14.1070000   0.6280000  40.9460000   9.8560000  11.6020000
  39.9380000   9.6300000   9.8910000  43.1320000  10.8900000  11.4250000
  42.1530000  10.3390000  12.1860000  40.2770000   9.4650000  12.1510000
  43.9320000  11.1970000  11.8360000  42.2740000  10.2740000  13.1270000
  44.0950000  19.5500000   4.9780000  43.9380000  19.6690000   3.5870000
  43.1140000  18.9930000   5.8090000  45.3260000  20.0380000   5.5830000
  43.1370000  19.3520000   3.1860000  44.9140000  20.2350000   2.7770000
  42.3000000  18.6760000   5.4360000  43.2930000  18.8910000   7.1960000
  46.3180000  20.6100000   4.7500000  45.5050000  19.9360000   6.9700000
  46.1390000  20.7110000   3.3760000  44.7500000  20.3600000   1.3540000
  42.3010000  18.3190000   8.0280000  44.5240000  19.3790000   7.8010000
  47.1230000  20.9310000   5.1400000  46.3180000  20.2530000   7.3430000
  47.1350000  21.2960000   2.5130000  43.9510000  20.0540000   0.9420000
  45.7290000  20.9110000   0.5920000  42.4800000  18.2180000   9.4030000
  41.4960000  17.9980000   7.6390000  44.6800000  19.2590000   9.1920000
  46.9370000  21.3940000   1.1770000  47.9450000  21.6200000   2.8880000
  45.6080000  20.9760000  -0.3480000  41.4840000  17.6320000  10.2660000
  43.7040000  18.6940000  10.0020000  45.4820000  19.5770000   9.5930000
  47.6050000  21.7850000   0.6280000  41.6820000  17.5350000  11.6020000
  40.6740000  17.3080000   9.8910000  43.8680000  18.5690000  11.4250000
  42.8890000  18.0180000  12.1860000  41.0130000  17.1430000  12.1510000
  44.6680000  18.8750000  11.8360000  43.0100000  17.9530000  13.1270000
  44.8310000  27.2290000   4.9780000  44.6740000  27.3480000   3.5870000
  43.8500000  26.6710000   5.8090000  46.0620000  27.7170000   5.5830000
  43.8730000  27.0300000   3.1860000  45.6500000  27.9130000   2.7770000
  43.0360000  26.3540000   5.4360000  44.0290000  26.5690000   7.1960000
  47.0540000  28.2880000   4.7500000  46.2410000  27.6150000   6.9700000
  46.8750000  28.3890000   3.3760000  45.4870000  28.0390000   1.3540000
  43.0370000  25.9980000   8.0280000  45.2600000  27.0570000   7.8010000
  47.8590000  28.6090000   5.1400000  47.0550000  27.9320000   7.3430000
  47.8710000  28.9750000   2.5130000  44.6870000  27.7320000   0.9420000
  46.4660000  28.5900000   0.5920000  43.2160000  25.8970000   9.4030000
  42.2320000  25.6770000   7.6390000  45.4160000  26.9380000   9.1920000
  47.6730000  29.0720000   1.1770000  48.6810000  29.2990000   2.8880000
  46.3440000  28.6550000  -0.3480000  42.2200000  25.3110000  10.2660000
  44.4400000  26.3730000  10.0020000  46.2180000  27.2550000   9.5930000
  48.3410000  29.4640000   0.6280000  42.4180000  25.2140000  11.6020000
  41.4100000  24.9870000   9.8910000  44.6040000  26.2470000  11.4250000
  43.6250000  25.6960000  12.1860000  41.7490000  24.8220000  12.1510000
  45.4040000  26.5540000  11.8360000  43.7460000  25.6310000  13.1270000
  45.5670000  34.9070000   4.9780000  45.4110000  35.0270000   3.5870000
  44.5860000  34.3500000   5.8090000  46.7980000  35.3950000   5.5830000
  44.6090000  34.7090000   3.1860000  46.3870000  35.5920000   2.7770000
  43.7720000  34.0330000   5.4360000  44.7650000  34.2480000   7.1960000
  47.7900000  35.9670000   4.7500000  46.9770000  35.2930000   6.9700000
  47.6110000  36.0680000   3.3760000  46.2230000  35.7170000   1.3540000
  43.7730000  33.6760000   8.0280000  45.9960000  34.7360000   7.8010000
  48.5950000  36.2880000   5.1400000  47.7910000  35.6100000   7.3430000
  48.6070000  36.6540000   2.5130000  45.4230000  35.4110000   0.9420000
  47.2020000  36.2680000   0.5920000  43.9520000  33.5750000   9.4030000
  42.9680000  33.3550000   7.6390000  46.1520000  34.6160000   9.1920000
  48.4090000  36.7510000   1.1770000  49.4170000  36.9780000   2.8880000
  47.0810000  36.3330000  -0.3480000  42.9560000  32.9890000  10.2660000
  45.1770000  34.0510000  10.0020000  46.9540000  34.9340000   9.5930000
  49.0780000  37.1430000   0.6280000  43.1540000  32.8920000  11.6020000
  42.1460000  32.6650000   9.8910000  45.3400000  33.9260000  11.4250000
  44.3610000  33.3750000  12.1860000  42.4860000  32.5010000  12.1510000
  46.1400000  34.2320000  11.8360000  44.4830000  33.3100000  13.1270000
  47.0390000  50.2640000   4.9780000  46.8830000  50.3840000   3.5870000
  46.0580000  49.7070000   5.8090000  48.2700000  50.7520000   5.5830000
  46.0810000  50.0660000   3.1860000  47.8590000  50.9490000   2.7770000
  45.2450000  49.3900000   5.4360000  46.2370000  49.6050000   7.1960000
  49.2620000  51.3240000   4.7500000  48.4490000  50.6500000   6.9700000
  49.0830000  51.4250000   3.3760000  47.6950000  51.0740000   1.3540000
  45.2460000  49.0340000   8.0280000  47.4680000  50.0930000   7.8010000
  50.0670000  51.6450000   5.1400000  49.2630000  50.9680000   7.3430000
  50.0790000  52.0110000   2.5130000  46.8950000  50.7680000   0.9420000
  48.6740000  51.6250000   0.5920000  45.4240000  48.9320000   9.4030000
  44.4400000  48.7120000   7.6390000  47.6250000  49.9740000   9.1920000
  49.8810000  52.1080000   1.1770000  50.8890000  52.3350000   2.8880000
  48.5530000  51.6900000  -0.3480000  44.4280000  48.3470000  10.2660000
  46.6490000  49.4080000  10.0020000  48.4260000  50.2910000   9.5930000
  50.5500000  52.5000000   0.6280000  44.6260000  48.2490000  11.6020000
  43.6180000  48.0230000   9.8910000  46.8130000  49.2830000  11.4250000
  45.8340000  48.7320000  12.1860000  43.9580000  47.8580000  12.1510000
  47.6120000  49.5900000  11.8360000  45.9550000  48.6670000  13.1270000
  47.7750000  57.9430000   4.9780000  47.6190000  58.0620000   3.5870000
  46.7940000  57.3860000   5.8090000  49.0060000  58.4310000   5.5830000
  46.8180000  57.7450000   3.1860000  48.5950000  58.6280000   2.7770000
  45.9810000  57.0680000   5.4360000  46.9740000  57.2840000   7.1960000
  49.9980000  59.0030000   4.7500000  49.1860000  58.3290000   6.9700000
  49.8190000  59.1040000   3.3760000  48.4310000  58.7530000   1.3540000
  45.9820000  56.7120000   8.0280000  48.2040000  57.7720000   7.8010000
  50.8030000  59.3240000   5.1400000  49.9990000  58.6460000   7.3430000
  50.8150000  59.6890000   2.5130000  47.6310000  58.4470000   0.9420000
  49.4100000  59.3040000   0.5920000  46.1600000  56.6110000   9.4030000
  45.1760000  56.3910000   7.6390000  48.3610000  57.6520000   9.1920000
  50.6170000  59.7870000   1.1770000  51.6250000  60.0130000   2.8880000
  49.2890000  59.3690000  -0.3480000  45.1640000  56.0250000  10.2660000
  47.3850000  57.0870000  10.0020000  49.1620000  57.9700000   9.5930000
  51.2860000  60.1780000   0.6280000  45.3620000  55.9280000  11.6020000
  44.3550000  55.7010000   9.8910000  47.5490000  56.9620000  11.4250000
  46.5700000  56.4110000  12.1860000  44.6940000  55.5360000  12.1510000
  48.3490000  57.2680000  11.8360000  46.6910000  56.3460000  13.1270000
  48.5110000  65.6220000   4.9780000  48.3550000  65.7410000   3.5870000
  47.5300000  65.0640000   5.8090000  49.7420000  66.1100000   5.5830000
  47.5540000  65.4230000   3.1860000  49.3310000  66.3060000   2.7770000
  46.7170000  64.7470000   5.4360000  47.7100000  64.9620000   7.1960000
  50.7340000  66.6810000   4.7500000  49.9220000  66.0080000   6.9700000
  50.5560000  66.7820000   3.3760000  49.1670000  66.4320000   1.3540000
  46.7180000  64.3910000   8.0280000  48.9410000  65.4500000   7.8010000
  51.5400000  67.0020000   5.1400000  50.7350000  66.3250000   7.3430000
  51.5520000  67.3680000   2.5130000  48.3670000  66.1250000   0.9420000
  50.1460000  66.9830000   0.5920000  46.8960000  64.2900000   9.4030000
  45.9120000  64.0700000   7.6390000  49.0970000  65.3310000   9.1920000
  51.3540000  67.4650000   1.1770000  52.3610000  67.6920000   2.8880000
  50.0250000  67.0480000  -0.3480000  45.9000000  63.7040000  10.2660000
  48.1210000  64.7660000  10.0020000  49.8980000  65.6480000   9.5930000
  52.0220000  67.8570000   0.6280000  46.0980000  63.6070000  11.6020000
  45.0910000  63.3800000   9.8910000  48.2850000  64.6400000  11.4250000
  47.3060000  64.0890000  12.1860000  45.4300000  63.2150000  12.1510000
  49.0850000  64.9470000  11.8360000  47.4270000  64.0240000  13.1270000
  49.2480000  73.3000000   4.9780000  49.0910000  73.4200000   3.5870000
  48.2660000  72.7430000   5.8090000  50.4780000  73.7880000   5.5830000
  48.2900000  73.1020000   3.1860000  50.0670000  73.9850000   2.7770000
  47.4530000  72.4260000   5.4360000  48.4460000  72.6410000   7.1960000
  51.4700000  74.3600000   4.7500000  50.6580000  73.6860000   6.9700000
  51.2920000  74.4610000   3.3760000  49.9030000  74.1100000   1.3540000
  47.4540000  72.0690000   8.0280000  49.6770000  73.1290000   7.8010000
  52.2760000  74.6810000   5.1400000  51.4710000  74.0030000   7.3430000
  52.2880000  75.0470000   2.5130000  49.1030000  73.8040000   0.9420000
  50.8820000  74.6610000   0.5920000  47.6330000  71.9680000   9.4030000
  46.6490000  71.7480000   7.6390000  49.8330000  73.0090000   9.1920000
  52.0900000  75.1440000   1.1770000  53.0970000  75.3710000   2.8880000
  50.7610000  74.7260000  -0.3480000  46.6370000  71.3820000  10.2660000
  48.8570000  72.4440000  10.0020000  50.6340000  73.3270000   9.5930000
  52.7580000  75.5360000   0.6280000  46.8350000  71.2850000  11.6020000
  45.8270000  71.0580000   9.8910000  49.0210000  72.3190000  11.4250000
  48.0420000  71.7680000  12.1860000  46.1660000  70.8930000  12.1510000
  49.8210000  72.6250000  11.8360000  48.1630000  71.7030000  13.1270000
  49.9840000  80.9790000   4.9780000  49.8270000  81.0980000   3.5870000
  49.0030000  80.4210000   5.8090000  51.2150000  81.4670000   5.5830000
  49.0260000  80.7810000   3.1860000  50.8030000  81.6630000   2.7770000
  48.1890000  80.1040000   5.4360000  49.1820000  80.3200000   7.1960000
  52.2060000  82.0380000   4.7500000  51.3940000  81.3650000   6.9700000
  52.0280000  82.1390000   3.3760000  50.6390000  81.7890000   1.3540000
  48.1900000  79.7480000   8.0280000  50.4130000  80.8070000   7.8010000
  53.0120000  82.3590000   5.1400000  52.2070000  81.6820000   7.3430000
  53.0240000  82.7250000   2.5130000  49.8400000  81.4820000   0.9420000
  51.6180000  82.3400000   0.5920000  48.3690000  79.6470000   9.4030000
  47.3850000  79.4270000   7.6390000  50.5690000  80.6880000   9.1920000
  52.8260000  82.8220000   1.1770000  53.8340000  83.0490000   2.8880000
  51.4970000  82.4050000  -0.3480000  47.3730000  79.0610000  10.2660000
  49.5930000  80.1230000  10.0020000  51.3710000  81.0060000   9.5930000
  53.4940000  83.2140000   0.6280000  47.5710000  78.9640000  11.6020000
  46.5630000  78.7370000   9.8910000  49.7570000  79.9980000  11.4250000
  48.7780000  79.4460000  12.1860000  46.9020000  78.5720000  12.1510000
  50.5570000  80.3040000  11.8360000  48.8990000  79.3820000  13.1270000
  46.7320000  42.4150000   7.8010000  46.8890000  42.2950000   9.1920000
  47.7130000  42.9720000   6.9700000  45.5010000  41.9270000   7.1960000
  47.6900000  42.6130000   9.5930000  45.9130000  41.7300000  10.0020000
  48.5270000  43.2890000   7.3430000  47.5340000  43.0740000   5.5830000
  44.5090000  41.3550000   8.0280000  45.3220000  42.0280000   5.8090000
  44.6880000  41.2540000   9.4030000  46.0770000  41.6050000  11.4250000
  48.5260000  43.6450000   4.7500000  46.3030000  42.5860000   4.9780000
  43.7040000  41.0340000   7.6390000  44.5080000  41.7110000   5.4360000
  43.6920000  40.6680000  10.2660000  46.8760000  41.9110000  11.8360000
  45.0980000  41.0530000  12.1860000  48.3470000  43.7460000   3.3760000
  49.3310000  43.9660000   5.1400000  46.1470000  42.7050000   3.5870000
  43.8900000  40.5710000  11.6020000  42.8820000  40.3440000   9.8910000
  45.2190000  40.9890000  13.1270000  49.3430000  44.3320000   2.5130000
  47.1230000  43.2710000   2.7770000  45.3450000  42.3880000   3.1860000
  43.2220000  40.1790000  12.1510000  49.1450000  44.4290000   1.1770000
  50.1530000  44.6560000   2.8880000  46.9590000  43.3960000   1.3540000
  47.9380000  43.9470000   0.5920000  49.8140000  44.8210000   0.6280000
  46.1590000  43.0890000   0.9420000  47.8170000  44.0120000  -0.3480000
  53.1870000  76.3520000   7.6140000  53.3580000  75.6750000   8.8380000
  54.1630000  76.3470000   6.6100000  51.9430000  77.0810000   7.3820000
  54.1590000  75.1880000   8.9900000  52.3850000  75.7020000   9.8280000
  54.9770000  75.8740000   6.7410000  53.9920000  77.0270000   5.3970000
  50.9590000  77.0860000   8.4010000  51.7730000  77.7610000   6.1690000
  51.1540000  76.4270000   9.6010000  52.5570000  75.0420000  11.0820000
  54.9770000  77.0220000   4.3780000  52.7480000  77.7560000   5.1650000
  50.1450000  77.5540000   8.2560000  50.9590000  78.2340000   6.0380000
  50.1700000  76.4430000  10.6390000  53.3600000  74.5610000  11.2470000
  51.5990000  75.0850000  12.0400000  54.7810000  77.6810000   3.1770000
  55.7910000  76.5540000   4.5230000  52.5780000  78.4330000   3.9410000
  50.3810000  75.8000000  11.8110000  49.3560000  76.9120000  10.5020000
  51.7380000  74.6400000  12.8680000  55.7650000  77.6640000   2.1400000
  53.5510000  78.4050000   2.9510000  51.7770000  78.9200000   3.7890000
  49.7150000  75.8230000  12.4870000  55.5540000  78.3080000   0.9680000
  56.5800000  77.1950000   2.2760000  53.3790000  79.0650000   1.6970000
  54.3360000  79.0220000   0.7390000  56.2210000  78.2850000   0.2920000
  52.5760000  79.5460000   1.5310000  54.1980000  79.4670000  -0.0890000
  47.0640000  10.5210000  21.6710000  47.2340000   9.8450000  22.8950000
  48.0390000  10.5160000  20.6670000  45.8190000  11.2500000  21.4390000
  48.0350000   9.3570000  23.0470000  46.2610000   9.8720000  23.8850000
  48.8530000  10.0440000  20.7980000  47.8690000  11.1960000  19.4540000
  44.8350000  11.2550000  22.4580000  45.6490000  11.9310000  20.2260000
  45.0310000  10.5960000  23.6580000  46.4330000   9.2120000  25.1380000
  48.8530000  11.1910000  18.4350000  46.6250000  11.9250000  19.2220000
  44.0210000  11.7230000  22.3130000  44.8350000  12.4030000  20.0950000
  44.0460000  10.6130000  24.6960000  47.2360000   8.7310000  25.3040000
  45.4760000   9.2550000  26.0970000  48.6570000  11.8510000  17.2340000
  49.6670000  10.7240000  18.5800000  46.4540000  12.6020000  17.9980000
  44.2580000   9.9690000  25.8680000  43.2320000  11.0820000  24.5590000
  45.6140000   8.8100000  26.9250000  49.6420000  11.8340000  16.1970000
  47.4270000  12.5750000  17.0080000  45.6530000  13.0900000  17.8460000
  43.5910000   9.9930000  26.5440000  49.4300000  12.4770000  15.0250000
  50.4560000  11.3650000  16.3330000  47.2550000  13.2350000  15.7540000
  48.2130000  13.1920000  14.7950000  50.0970000  12.4540000  14.3480000
  46.4520000  13.7160000  15.5880000  48.0740000  13.6370000  13.9670000
  47.5650000  13.7980000  35.7270000  47.7350000  13.1210000  36.9520000
  48.5410000  13.7930000  34.7240000  46.3210000  14.5270000  35.4960000
  48.5360000  12.6340000  37.1040000  46.7630000  13.1490000  37.9410000
  49.3540000  13.3200000  34.8550000  48.3700000  14.4730000  33.5110000
  45.3360000  14.5320000  36.5150000  46.1500000  15.2070000  34.2820000
  45.5320000  13.8730000  37.7150000  46.9340000  12.4890000  39.1950000
  49.3540000  14.4680000  32.4920000  47.1260000  15.2020000  33.2790000
  44.5220000  15.0000000  36.3700000  45.3360000  15.6800000  34.1520000
  44.5480000  13.8900000  38.7520000  47.7370000  12.0080000  39.3610000
  45.9770000  12.5320000  40.1540000  49.1590000  15.1270000  31.2910000
  50.1690000  14.0000000  32.6360000  46.9550000  15.8790000  32.0540000
  44.7590000  13.2460000  39.9250000  43.7330000  14.3590000  38.6160000
  46.1150000  12.0870000  40.9820000  50.1430000  15.1110000  30.2540000
  47.9280000  15.8520000  31.0650000  46.1540000  16.3660000  31.9030000
  44.0920000  13.2690000  40.6010000  49.9320000  15.7540000  29.0810000
  50.9580000  14.6420000  30.3900000  47.7560000  16.5120000  29.8110000
  48.7140000  16.4690000  28.8520000  50.5980000  15.7310000  28.4050000
  46.9540000  16.9930000  29.6450000  48.5750000  16.9140000  28.0240000
  46.5620000   7.2440000   7.6140000  46.7330000   6.5680000   8.8380000
  47.5380000   7.2390000   6.6100000  45.3180000   7.9740000   7.3820000
  47.5340000   6.0800000   8.9900000  45.7600000   6.5950000   9.8280000
  48.3520000   6.7670000   6.7410000  47.3670000   7.9190000   5.3970000
  44.3340000   7.9780000   8.4010000  45.1480000   8.6540000   6.1690000
  44.5290000   7.3190000   9.6010000  45.9320000   5.9350000  11.0820000
  48.3520000   7.9140000   4.3780000  46.1230000   8.6490000   5.1650000
  43.5190000   8.4460000   8.2560000  44.3340000   9.1260000   6.0380000
  43.5450000   7.3360000  10.6390000  46.7350000   5.4540000  11.2470000
  44.9740000   5.9780000  12.0400000  48.1560000   8.5740000   3.1770000
  49.1660000   7.4470000   4.5230000  45.9530000   9.3250000   3.9410000
  43.7560000   6.6930000  11.8110000  42.7300000   7.8050000  10.5020000
  45.1130000   5.5330000  12.8680000  49.1400000   8.5570000   2.1400000
  46.9250000   9.2980000   2.9510000  45.1520000   9.8130000   3.7890000
  43.0900000   6.7160000  12.4870000  48.9290000   9.2000000   0.9680000
  49.9550000   8.0880000   2.2760000  46.7540000   9.9580000   1.6970000
  47.7110000   9.9150000   0.7390000  49.5960000   9.1770000   0.2920000
  45.9510000  10.4390000   1.5310000  47.5730000  10.3600000  -0.0890000
  47.3610000  19.6040000  19.2220000  47.1900000  20.2810000  17.9980000
  46.3850000  19.6090000  20.2260000  48.6050000  18.8750000  19.4540000
  46.3890000  20.7680000  17.8460000  48.1630000  20.2530000  17.0080000
  45.5710000  20.0820000  20.0950000  46.5560000  18.9290000  21.4390000
  49.5890000  18.8700000  18.4350000  48.7750000  18.1950000  20.6670000
  49.3940000  19.5290000  17.2340000  47.9910000  20.9130000  15.7540000
  45.5710000  18.9340000  22.4580000  47.8000000  18.2000000  21.6710000
  50.4030000  18.4020000  18.5800000  49.5890000  17.7220000  20.7980000
  50.3780000  19.5120000  16.1970000  47.1880000  21.3940000  15.5880000
  48.9490000  20.8700000  14.7950000  45.7670000  18.2750000  23.6580000
  44.7570000  19.4020000  22.3130000  47.9700000  17.5230000  22.8950000
  50.1670000  20.1560000  15.0250000  51.1920000  19.0430000  16.3330000
  48.8100000  21.3150000  13.9670000  44.7830000  18.2910000  24.6960000
  46.9970000  17.5500000  23.8850000  48.7710000  17.0360000  23.0470000
  50.8330000  20.1330000  14.3480000  44.9940000  17.6480000  25.8680000
  43.9680000  18.7600000  24.5590000  47.1690000  16.8900000  25.1380000
  46.2120000  16.9340000  26.0970000  44.3270000  17.6710000  26.5440000
  47.9720000  16.4090000  25.3040000  46.3500000  16.4880000  26.9250000
  48.5980000  30.5590000  33.2790000  48.4280000  31.2360000  32.0540000
  47.6220000  30.5650000  34.2820000  49.8420000  29.8300000  33.5110000
  47.6260000  31.7240000  31.9030000  49.4000000  31.2090000  31.0650000
  46.8090000  31.0370000  34.1520000  47.7930000  29.8840000  35.4960000
  50.8270000  29.8250000  32.4920000  50.0130000  29.1500000  34.7240000
  50.6310000  30.4850000  31.2910000  49.2280000  31.8690000  29.8110000
  46.8090000  29.8890000  36.5150000  49.0370000  29.1550000  35.7270000
  51.6410000  29.3580000  32.6360000  50.8260000  28.6780000  34.8550000
  51.6150000  30.4680000  30.2540000  48.4260000  32.3500000  29.6450000
  50.1860000  31.8260000  28.8520000  47.0040000  29.2300000  37.7150000
  45.9940000  30.3570000  36.3700000  49.2070000  28.4790000  36.9520000
  51.4040000  31.1110000  29.0810000  52.4300000  29.9990000  30.3900000
  50.0480000  32.2710000  28.0240000  46.0200000  29.2470000  38.7520000
  48.2350000  28.5060000  37.9410000  50.0090000  27.9910000  37.1040000
  52.0700000  31.0880000  28.4050000  46.2310000  28.6030000  39.9250000
  45.2050000  29.7160000  38.6160000  48.4070000  27.8460000  39.1950000
  47.4490000  27.8890000  40.1540000  45.5650000  28.6270000  40.6010000
  49.2090000  27.3650000  39.3610000  47.5870000  27.4440000  40.9820000
  48.0340000  22.6020000   7.6140000  48.2050000  21.9250000   8.8380000
  49.0100000  22.5960000   6.6100000  46.7900000  23.3310000   7.3820000
  49.0060000  21.4370000   8.9900000  47.2320000  21.9520000   9.8280000
  49.8240000  22.1240000   6.7410000  48.8400000  23.2770000   5.3970000
  45.8060000  23.3360000   8.4010000  46.6200000  24.0110000   6.1690000
  46.0020000  22.6760000   9.6010000  47.4040000  21.2920000  11.0820000
  49.8240000  23.2720000   4.3780000  47.5960000  24.0060000   5.1650000
  44.9920000  23.8030000   8.2560000  45.8060000  24.4830000   6.0380000
  45.0170000  22.6930000  10.6390000  48.2070000  20.8110000  11.2470000
  46.4460000  21.3350000  12.0400000  49.6280000  23.9310000   3.1770000
  50.6380000  22.8040000   4.5230000  47.4250000  24.6820000   3.9410000
  45.2290000  22.0500000  11.8110000  44.2030000  23.1620000  10.5020000
  46.5850000  20.8900000  12.8680000  50.6130000  23.9140000   2.1400000
  48.3980000  24.6550000   2.9510000  46.6240000  25.1700000   3.7890000
  44.5620000  22.0730000  12.4870000  50.4010000  24.5580000   0.9680000
  51.4270000  23.4450000   2.2760000  48.2260000  25.3150000   1.6970000
  49.1840000  25.2720000   0.7390000  51.0680000  24.5340000   0.2920000
  47.4230000  25.7960000   1.5310000  49.0450000  25.7170000  -0.0890000
  48.5360000  25.8780000  21.6710000  48.7060000  25.2020000  22.8950000
  49.5120000  25.8730000  20.6670000  47.2920000  26.6080000  21.4390000
  49.5070000  24.7140000  23.0470000  47.7340000  25.2290000  23.8850000
  50.3250000  25.4010000  20.7980000  49.3410000  26.5530000  19.4540000
  46.3070000  26.6120000  22.4580000  47.1210000  27.2880000  20.2260000
  46.5030000  25.9530000  23.6580000  47.9050000  24.5690000  25.1380000
  50.3250000  26.5480000  18.4350000  48.0970000  27.2830000  19.2220000
  45.4930000  27.0800000  22.3130000  46.3070000  27.7600000  20.0950000
  45.5190000  25.9700000  24.6960000  48.7080000  24.0880000  25.3040000
  46.9480000  24.6120000  26.0970000  50.1300000  27.2080000  17.2340000
  51.1400000  26.0810000  18.5800000  47.9260000  27.9590000  17.9980000
  45.7300000  25.3270000  25.8680000  44.7040000  26.4390000  24.5590000
  47.0860000  24.1670000  26.9250000  51.1140000  27.1910000  16.1970000
  48.8990000  27.9320000  17.0080000  47.1250000  28.4470000  17.8460000
  45.0630000  25.3500000  26.5440000  50.9030000  27.8340000  15.0250000
  51.9290000  26.7220000  16.3330000  48.7270000  28.5920000  15.7540000
  49.6850000  28.5490000  14.7950000  51.5690000  27.8110000  14.3480000
  47.9250000  29.0730000  15.5880000  49.5460000  28.9940000  13.9670000
  49.5380000  32.4320000  49.7840000  49.7090000  31.7550000  51.0090000
  50.5140000  32.4270000  48.7810000  48.2940000  33.1610000  49.5520000
  50.5100000  31.2680000  51.1600000  48.7360000  31.7830000  51.9980000
  51.3280000  31.9540000  48.9110000  50.3430000  33.1070000  47.5670000
  47.3100000  33.1660000  50.5710000  48.1240000  33.8410000  48.3390000
  47.5050000  32.5070000  51.7720000  48.9080000  31.1230000  53.2520000
  51.3280000  33.1020000  46.5480000  49.0990000  33.8360000  47.3360000
  46.4960000  33.6340000  50.4270000  47.3100000  34.3140000  48.2080000
  46.5210000  32.5240000  52.8090000  49.7110000  30.6420000  53.4180000
  47.9500000  31.1660000  54.2110000  51.1320000  33.7610000  45.3480000
  52.1420000  32.6340000  46.6930000  48.9290000  34.5130000  46.1110000
  46.7320000  31.8800000  53.9820000  45.7070000  32.9930000  52.6730000
  48.0890000  30.7210000  55.0390000  52.1160000  33.7450000  44.3110000
  49.9010000  34.4860000  45.1220000  48.1280000  35.0000000  45.9590000
  46.0660000  31.9030000  54.6580000  51.9050000  34.3880000  43.1380000
  52.9310000  33.2760000  44.4470000  49.7300000  35.1460000  43.8680000
  50.6870000  35.1030000  42.9090000  52.5720000  34.3650000  42.4620000
  48.9270000  35.6270000  43.7020000  50.5490000  35.5480000  42.0810000
  48.8330000  34.9610000  19.2220000  48.6630000  35.6380000  17.9980000
  47.8570000  34.9660000  20.2260000  50.0770000  34.2320000  19.4540000
  47.8610000  36.1250000  17.8460000  49.6350000  35.6110000  17.0080000
  47.0440000  35.4390000  20.0950000  48.0280000  34.2860000  21.4390000
  51.0610000  34.2270000  18.4350000  50.2480000  33.5520000  20.6670000
  50.8660000  34.8860000  17.2340000  49.4630000  36.2710000  15.7540000
  47.0430000  34.2910000  22.4580000  49.2720000  33.5570000  21.6710000
  51.8760000  33.7590000  18.5800000  51.0610000  33.0790000  20.7980000
  51.8500000  34.8690000  16.1970000  48.6610000  36.7520000  15.5880000
  50.4210000  36.2270000  14.7950000  47.2390000  33.6320000  23.6580000
  46.2290000  34.7590000  22.3130000  49.4420000  32.8800000  22.8950000
  51.6390000  35.5130000  15.0250000  52.6650000  34.4010000  16.3330000
  50.2830000  36.6730000  13.9670000  46.2550000  33.6490000  24.6960000
  48.4700000  32.9080000  23.8850000  50.2430000  32.3930000  23.0470000
  52.3050000  35.4900000  14.3480000  46.4660000  33.0050000  25.8680000
  45.4400000  34.1180000  24.5590000  48.6420000  32.2480000  25.1380000
  47.6840000  32.2910000  26.0970000  45.7990000  33.0280000  26.5440000
  49.4440000  31.7670000  25.3040000  47.8220000  31.8460000  26.9250000
  49.3340000  38.2380000  33.2790000  49.1640000  38.9150000  32.0540000
  48.3580000  38.2430000  34.2820000  50.5780000  37.5090000  33.5110000
  48.3630000  39.4020000  31.9030000  50.1360000  38.8870000  31.0650000
  47.5450000  38.7160000  34.1520000  48.5290000  37.5630000  35.4960000
  51.5630000  37.5040000  32.4920000  50.7490000  36.8290000  34.7240000
  51.3670000  38.1630000  31.2910000  49.9650000  39.5470000  29.8110000
  47.5450000  37.5680000  36.5150000  49.7730000  36.8340000  35.7270000
  52.3770000  37.0360000  32.6360000  51.5630000  36.3560000  34.8550000
  52.3510000  38.1460000  30.2540000  49.1620000  40.0290000  29.6450000
  50.9220000  39.5040000  28.8520000  47.7400000  36.9090000  37.7150000
  46.7300000  38.0360000  36.3700000  49.9440000  36.1570000  36.9520000
  52.1400000  38.7900000  29.0810000  53.1660000  37.6770000  30.3900000
  50.7840000  39.9490000  28.0240000  46.7560000  36.9260000  38.7520000
  48.9710000  36.1840000  37.9410000  50.7450000  35.6700000  37.1040000
  52.8070000  38.7670000  28.4050000  46.9670000  36.2820000  39.9250000
  45.9410000  37.3940000  38.6160000  49.1430000  35.5250000  39.1950000
  48.1850000  35.5680000  40.1540000  46.3010000  36.3050000  40.6010000
  49.9450000  35.0430000  39.3610000  48.3240000  35.1220000  40.9820000
  49.8350000  41.5150000  47.3360000  49.6650000  42.1920000  46.1110000
  48.8600000  41.5200000  48.3390000  51.0800000  40.7860000  47.5670000
  48.8640000  42.6790000  45.9590000  50.6380000  42.1640000  45.1220000
  48.0460000  41.9920000  48.2080000  49.0300000  40.8400000  49.5520000
  52.0640000  40.7810000  46.5480000  51.2500000  40.1060000  48.7810000
  51.8680000  41.4400000  45.3480000  50.4660000  42.8240000  43.8680000
  48.0460000  40.8450000  50.5710000  50.2740000  40.1110000  49.7840000
  52.8780000  40.3130000  46.6930000  52.0640000  39.6330000  48.9110000
  52.8530000  41.4230000  44.3110000  49.6630000  43.3050000  43.7020000
  51.4230000  42.7810000  42.9090000  48.2420000  40.1860000  51.7720000
  47.2320000  41.3120000  50.4270000  50.4450000  39.4340000  51.0090000
  52.6410000  42.0670000  43.1380000  53.6670000  40.9540000  44.4470000
  51.2850000  43.2260000  42.0810000  47.2570000  40.2020000  52.8090000
  49.4720000  39.4610000  51.9980000  51.2460000  38.9460000  51.1600000
  53.3080000  42.0430000  42.4620000  47.4690000  39.5590000  53.9820000
  46.4430000  40.6710000  52.6730000  49.6440000  38.8010000  53.2520000
  48.6860000  38.8440000  54.2110000  46.8020000  39.5820000  54.6580000
  50.4470000  38.3200000  53.4180000  48.8250000  38.3990000  55.0390000
  51.7780000  49.9410000  91.9550000  51.9490000  49.2640000  93.1790000
  52.7540000  49.9360000  90.9510000  50.5340000  50.6700000  91.7230000
  52.7500000  48.7770000  93.3310000  50.9760000  49.2920000  94.1690000
  53.5680000  49.4640000  91.0820000  52.5830000  50.6160000  89.7380000
  49.5500000  50.6750000  92.7420000  50.3630000  51.3500000  90.5100000
  49.7450000  50.0160000  93.9420000  51.1480000  48.6320000  95.4230000
  53.5680000  50.6110000  88.7190000  51.3390000  51.3450000  89.5060000
  48.7350000  51.1430000  92.5970000  49.5500000  51.8230000  90.3790000
  48.7610000  50.0330000  94.9800000  51.9500000  48.1510000  95.5880000
  50.1900000  48.6750000  96.3810000  53.3720000  51.2710000  87.5180000
  54.3820000  50.1440000  88.8640000  51.1690000  52.0220000  88.2820000
  48.9720000  49.3890000  96.1520000  47.9460000  50.5020000  94.8430000
  50.3290000  48.2300000  97.2090000  54.3560000  51.2540000  86.4810000
  52.1410000  51.9950000  87.2920000  50.3680000  52.5100000  88.1300000
  48.3060000  49.4130000  96.8280000  54.1450000  51.8970000  85.3090000
  55.1710000  50.7850000  86.6170000  51.9700000  52.6550000  86.0380000
  52.9270000  52.6120000  85.0800000  54.8120000  51.8740000  84.6320000
  51.1670000  53.1360000  85.8720000  52.7890000  53.0570000  84.2520000
  48.7710000  30.2800000   7.6140000  48.9410000  29.6030000   8.8380000
  49.7460000  30.2750000   6.6100000  47.5260000  31.0090000   7.3820000
  49.7420000  29.1160000   8.9900000  47.9680000  29.6310000   9.8280000
  50.5600000  29.8030000   6.7410000  49.5760000  30.9550000   5.3970000
  46.5420000  31.0140000   8.4010000  47.3560000  31.6890000   6.1690000
  46.7380000  30.3550000   9.6010000  48.1400000  28.9710000  11.0820000
  50.5600000  30.9500000   4.3780000  48.3320000  31.6840000   5.1650000
  45.7280000  31.4820000   8.2560000  46.5420000  32.1620000   6.0380000
  45.7540000  30.3720000  10.6390000  48.9430000  28.4900000  11.2470000
  47.1830000  29.0140000  12.0400000  50.3650000  31.6100000   3.1770000
  51.3740000  30.4830000   4.5230000  48.1610000  32.3610000   3.9410000
  45.9650000  29.7280000  11.8110000  44.9390000  30.8410000  10.5020000
  47.3210000  28.5690000  12.8680000  51.3490000  31.5930000   2.1400000
  49.1340000  32.3340000   2.9510000  47.3600000  32.8490000   3.7890000
  45.2980000  29.7520000  12.4870000  51.1380000  32.2360000   0.9680000
  52.1630000  31.1240000   2.2760000  48.9620000  32.9940000   1.6970000
  49.9200000  32.9510000   0.7390000  51.8040000  32.2130000   0.2920000
  48.1590000  33.4750000   1.5310000  49.7810000  33.3960000  -0.0890000
  49.5690000  42.6400000  19.2220000  49.3990000  43.3160000  17.9980000
  48.5930000  42.6450000  20.2260000  50.8130000  41.9110000  19.4540000
  48.5970000  43.8040000  17.8460000  50.3710000  43.2890000  17.0080000
  47.7800000  43.1170000  20.0950000  48.7640000  41.9650000  21.4390000
  51.7980000  41.9060000  18.4350000  50.9840000  41.2300000  20.6670000
  51.6020000  42.5650000  17.2340000  50.1990000  43.9490000  15.7540000
  47.7800000  41.9700000  22.4580000  50.0080000  41.2360000  21.6710000
  52.6120000  41.4380000  18.5800000  51.7970000  40.7580000  20.7980000
  52.5860000  42.5480000  16.1970000  49.3970000  44.4300000  15.5880000
  51.1570000  43.9060000  14.7950000  47.9750000  41.3100000  23.6580000
  46.9650000  42.4370000  22.3130000  50.1780000  40.5590000  22.8950000
  52.3750000  43.1920000  15.0250000  53.4010000  42.0790000  16.3330000
  51.0190000  44.3510000  13.9670000  46.9910000  41.3270000  24.6960000
  49.2060000  40.5860000  23.8850000  50.9800000  40.0710000  23.0470000
  53.0410000  43.1680000  14.3480000  47.2020000  40.6840000  25.8680000
  46.1760000  41.7960000  24.5590000  49.3780000  39.9260000  25.1380000
  48.4200000  39.9690000  26.0970000  46.5360000  40.7070000  26.5440000
  50.1800000  39.4450000  25.3040000  48.5580000  39.5240000  26.9250000
  50.0700000  45.9170000  33.2790000  49.9000000  46.5930000  32.0540000
  49.0950000  45.9220000  34.2820000  51.3140000  45.1870000  33.5110000
  49.0990000  47.0810000  31.9030000  50.8720000  46.5660000  31.0650000
  48.2810000  46.3940000  34.1520000  49.2650000  45.2420000  35.4960000
  52.2990000  45.1830000  32.4920000  51.4850000  44.5070000  34.7240000
  52.1030000  45.8420000  31.2910000  50.7010000  47.2260000  29.8110000
  48.2810000  45.2470000  36.5150000  50.5090000  44.5120000  35.7270000
  53.1130000  44.7150000  32.6360000  52.2990000  44.0350000  34.8550000
  53.0870000  45.8250000  30.2540000  49.8980000  47.7070000  29.6450000
  51.6580000  47.1830000  28.8520000  48.4760000  44.5870000  37.7150000
  47.4660000  45.7140000  36.3700000  50.6800000  43.8360000  36.9520000
  52.8760000  46.4680000  29.0810000  53.9020000  45.3560000  30.3900000
  51.5200000  47.6280000  28.0240000  47.4920000  44.6040000  38.7520000
  49.7070000  43.8630000  37.9410000  51.4810000  43.3480000  37.1040000
  53.5430000  46.4450000  28.4050000  47.7030000  43.9610000  39.9250000
  46.6770000  45.0730000  38.6160000  49.8790000  43.2030000  39.1950000
  48.9210000  43.2460000  40.1540000  47.0370000  43.9840000  40.6010000
  50.6820000  42.7220000  39.3610000  49.0600000  42.8010000  40.9820000
  50.5720000  49.1930000  47.3360000  50.4010000  49.8700000  46.1110000
  49.5960000  49.1990000  48.3390000  51.8160000  48.4640000  47.5670000
  49.6000000  50.3580000  45.9590000  51.3740000  49.8430000  45.1220000
  48.7820000  49.6710000  48.2080000  49.7660000  48.5180000  49.5520000
  52.8000000  48.4590000  46.5480000  51.9860000  47.7840000  48.7810000
  52.6040000  49.1190000  45.3480000  51.2020000  50.5030000  43.8680000
  48.7820000  48.5230000  50.5710000  51.0100000  47.7890000  49.7840000
  53.6140000  47.9920000  46.6930000  52.8000000  47.3120000  48.9110000
  53.5890000  49.1020000  44.3110000  50.3990000  50.9840000  43.7020000
  52.1600000  50.4600000  42.9090000  48.9780000  47.8640000  51.7720000
  47.9680000  48.9910000  50.4270000  51.1810000  47.1130000  51.0090000
  53.3770000  49.7450000  43.1380000  54.4030000  48.6330000  44.4470000
  52.0210000  50.9050000  42.0810000  47.9930000  47.8810000  52.8090000
  50.2080000  47.1400000  51.9980000  51.9820000  46.6250000  51.1600000
  54.0440000  49.7220000  42.4620000  48.2050000  47.2370000  53.9820000
  47.1790000  48.3500000  52.6730000  50.3800000  46.4800000  53.2520000
  49.4230000  46.5230000  54.2110000  47.5380000  47.2610000  54.6580000
  51.1830000  45.9990000  53.4180000  49.5610000  46.0780000  55.0390000
  49.5070000  37.9590000   7.6140000  49.6770000  37.2820000   8.8380000
  50.4820000  37.9540000   6.6100000  48.2630000  38.6880000   7.3820000
  50.4780000  36.7950000   8.9900000  48.7050000  37.3090000   9.8280000
  51.2960000  37.4810000   6.7410000  50.3120000  38.6340000   5.3970000
  47.2780000  38.6930000   8.4010000  48.0920000  39.3680000   6.1690000
  47.4740000  38.0340000   9.6010000  48.8760000  36.6490000  11.0820000
  51.2960000  38.6290000   4.3780000  49.0680000  39.3630000   5.1650000
  46.4640000  39.1610000   8.2560000  47.2780000  39.8410000   6.0380000
  46.4900000  38.0500000  10.6390000  49.6790000  36.1680000  11.2470000
  47.9190000  36.6920000  12.0400000  51.1010000  39.2880000   3.1770000
  52.1110000  38.1610000   4.5230000  48.8970000  40.0400000   3.9410000
  46.7010000  37.4070000  11.8110000  45.6750000  38.5190000  10.5020000
  48.0570000  36.2470000  12.8680000  52.0850000  39.2710000   2.1400000
  49.8700000  40.0120000   2.9510000  48.0960000  40.5270000   3.7890000
  46.0340000  37.4300000  12.4870000  51.8740000  39.9150000   0.9680000
  52.9000000  38.8020000   2.2760000  49.6980000  40.6720000   1.6970000
  50.6560000  40.6290000   0.7390000  52.5400000  39.8920000   0.2920000
  48.8960000  41.1530000   1.5310000  50.5170000  41.0740000  -0.0890000
  50.7440000  48.9140000  21.6710000  50.9150000  48.2380000  22.8950000
  51.7200000  48.9090000  20.6670000  49.5000000  49.6430000  21.4390000
  51.7160000  47.7500000  23.0470000  49.9420000  48.2650000  23.8850000
  52.5340000  48.4370000  20.7980000  51.5490000  49.5890000  19.4540000
  48.5160000  49.6480000  22.4580000  49.3290000  50.3230000  20.2260000
  48.7110000  48.9890000  23.6580000  50.1140000  47.6050000  25.1380000
  52.5340000  49.5840000  18.4350000  50.3050000  50.3180000  19.2220000
  47.7010000  50.1160000  22.3130000  48.5160000  50.7960000  20.0950000
  47.7270000  49.0060000  24.6960000  50.9160000  47.1240000  25.3040000
  49.1560000  47.6480000  26.0970000  52.3380000  50.2440000  17.2340000
  53.3480000  49.1170000  18.5800000  50.1350000  50.9950000  17.9980000
  47.9380000  48.3620000  25.8680000  46.9120000  49.4750000  24.5590000
  49.2950000  47.2030000  26.9250000  53.3220000  50.2270000  16.1970000
  51.1070000  50.9680000  17.0080000  49.3340000  51.4830000  17.8460000
  47.2720000  48.3860000  26.5440000  53.1110000  50.8700000  15.0250000
  54.1370000  49.7580000  16.3330000  50.9360000  51.6280000  15.7540000
  51.8930000  51.5850000  14.7950000  53.7780000  50.8470000  14.3480000
  50.1330000  52.1090000  15.5880000  51.7550000  52.0300000  13.9670000
  50.8060000  53.5950000  33.2790000  50.6360000  54.2720000  32.0540000
  49.8310000  53.6000000  34.2820000  52.0510000  52.8660000  33.5110000
  49.8350000  54.7590000  31.9030000  51.6090000  54.2450000  31.0650000
  49.0170000  54.0730000  34.1520000  50.0010000  52.9200000  35.4960000
  53.0350000  52.8610000  32.4920000  52.2210000  52.1860000  34.7240000
  52.8390000  53.5200000  31.2910000  51.4370000  54.9050000  29.8110000
  49.0170000  52.9250000  36.5150000  51.2450000  52.1910000  35.7270000
  53.8490000  52.3930000  32.6360000  53.0350000  51.7130000  34.8550000
  53.8230000  53.5040000  30.2540000  50.6340000  55.3860000  29.6450000
  52.3940000  54.8620000  28.8520000  49.2130000  52.2660000  37.7150000
  48.2030000  53.3930000  36.3700000  51.4160000  51.5140000  36.9520000
  53.6120000  54.1470000  29.0810000  54.6380000  53.0350000  30.3900000
  52.2560000  55.3070000  28.0240000  48.2280000  52.2830000  38.7520000
  50.4430000  51.5420000  37.9410000  52.2170000  51.0270000  37.1040000
  54.2790000  54.1240000  28.4050000  48.4400000  51.6390000  39.9250000
  47.4140000  52.7520000  38.6160000  50.6150000  50.8820000  39.1950000
  49.6570000  50.9250000  40.1540000  47.7730000  51.6620000  40.6010000
  51.4180000  50.4010000  39.3610000  49.7960000  50.4800000  40.9820000
  49.8040000  47.0420000   5.1650000  49.6330000  47.7180000   3.9410000
  48.8280000  47.0470000   6.1690000  51.0480000  46.3120000   5.3970000
  48.8320000  48.2060000   3.7890000  50.6060000  47.6910000   2.9510000
  48.0140000  47.5190000   6.0380000  48.9990000  46.3670000   7.3820000
  52.0320000  46.3070000   4.3780000  51.2190000  45.6320000   6.6100000
  51.8370000  46.9670000   3.1770000  50.4340000  48.3510000   1.6970000
  48.0140000  46.3710000   8.4010000  50.2430000  45.6370000   7.6140000
  52.8470000  45.8400000   4.5230000  52.0320000  45.1600000   6.7410000
  52.8210000  46.9500000   2.1400000  49.6320000  48.8320000   1.5310000
  51.3920000  48.3080000   0.7390000  48.2100000  45.7120000   9.6010000
  47.2000000  46.8390000   8.2560000  50.4130000  44.9610000   8.8380000
  52.6100000  47.5930000   0.9680000  53.6360000  46.4810000   2.2760000
  51.2530000  48.7530000  -0.0890000  47.2260000  45.7290000  10.6390000
  49.4410000  44.9880000   9.8280000  51.2140000  44.4730000   8.9900000
  53.2760000  47.5700000   0.2920000  47.4370000  45.0860000  11.8110000
  46.4110000  46.1980000  10.5020000  49.6130000  44.3280000  11.0820000
  48.6550000  44.3710000  12.0400000  46.7700000  45.1090000  12.4870000
  50.4150000  43.8470000  11.2470000  48.7930000  43.9260000  12.8680000
  51.4800000  56.5930000  21.6710000  51.6510000  55.9160000  22.8950000
  52.4560000  56.5880000  20.6670000  50.2360000  57.3220000  21.4390000
  52.4520000  55.4290000  23.0470000  50.6780000  55.9430000  23.8850000
  53.2700000  56.1150000  20.7980000  52.2850000  57.2680000  19.4540000
  49.2520000  57.3270000  22.4580000  50.0660000  58.0020000  20.2260000
  49.4470000  56.6680000  23.6580000  50.8500000  55.2830000  25.1380000
  53.2700000  57.2630000  18.4350000  51.0410000  57.9970000  19.2220000
  48.4370000  57.7950000  22.3130000  49.2520000  58.4750000  20.0950000
  48.4630000  56.6840000  24.6960000  51.6520000  54.8020000  25.3040000
  49.8920000  55.3260000  26.0970000  53.0740000  57.9220000  17.2340000
  54.0840000  56.7950000  18.5800000  50.8710000  58.6740000  17.9980000
  48.6740000  56.0410000  25.8680000  47.6480000  57.1530000  24.5590000
  50.0310000  54.8810000  26.9250000  54.0580000  57.9050000  16.1970000
  51.8430000  58.6460000  17.0080000  50.0700000  59.1610000  17.8460000
  48.0080000  56.0640000  26.5440000  53.8470000  58.5490000  15.0250000
  54.8730000  57.4360000  16.3330000  51.6720000  59.3060000  15.7540000
  52.6290000  59.2630000  14.7950000  54.5140000  58.5260000  14.3480000
  50.8690000  59.7870000  15.5880000  52.4910000  59.7080000  13.9670000
  51.9810000  59.8700000  35.7270000  52.1520000  59.1930000  36.9520000
  52.9570000  59.8650000  34.7240000  50.7370000  60.5990000  35.4960000
  52.9530000  58.7050000  37.1040000  51.1790000  59.2200000  37.9410000
  53.7710000  59.3920000  34.8550000  52.7870000  60.5450000  33.5110000
  49.7530000  60.6040000  36.5150000  50.5670000  61.2790000  34.2820000
  49.9490000  59.9440000  37.7150000  51.3510000  58.5600000  39.1950000
  53.7710000  60.5400000  32.4920000  51.5430000  61.2740000  33.2790000
  48.9390000  61.0710000  36.3700000  49.7530000  61.7510000  34.1520000
  48.9640000  59.9610000  38.7520000  52.1540000  58.0790000  39.3610000
  50.3930000  58.6030000  40.1540000  53.5750000  61.1990000  31.2910000
  54.5850000  60.0720000  32.6360000  51.3720000  61.9500000  32.0540000
  49.1760000  59.3180000  39.9250000  48.1500000  60.4300000  38.6160000
  50.5320000  58.1580000  40.9820000  54.5600000  61.1820000  30.2540000
  52.3450000  61.9230000  31.0650000  50.5710000  62.4380000  31.9030000
  48.5090000  59.3410000  40.6010000  54.3480000  61.8260000  29.0810000
  55.3740000  60.7130000  30.3900000  52.1730000  62.5830000  29.8110000
  53.1310000  62.5400000  28.8520000  55.0150000  61.8020000  28.4050000
  51.3700000  63.0640000  29.6450000  52.9920000  62.9850000  28.0240000
  50.9790000  53.3160000   7.6140000  51.1490000  52.6390000   8.8380000
  51.9550000  53.3110000   6.6100000  49.7350000  54.0450000   7.3820000
  51.9510000  52.1520000   8.9900000  50.1770000  52.6660000   9.8280000
  52.7680000  52.8380000   6.7410000  51.7840000  53.9910000   5.3970000
  48.7500000  54.0500000   8.4010000  49.5640000  54.7250000   6.1690000
  48.9460000  53.3910000   9.6010000  50.3490000  52.0070000  11.0820000
  52.7680000  53.9860000   4.3780000  50.5400000  54.7200000   5.1650000
  47.9360000  54.5180000   8.2560000  48.7510000  55.1980000   6.0380000
  47.9620000  53.4080000  10.6390000  51.1510000  51.5250000  11.2470000
  49.3910000  52.0500000  12.0400000  52.5730000  54.6450000   3.1770000
  53.5830000  53.5180000   4.5230000  50.3700000  55.3970000   3.9410000
  48.1730000  52.7640000  11.8110000  47.1470000  53.8770000  10.5020000
  49.5290000  51.6050000  12.8680000  53.5570000  54.6280000   2.1400000
  51.3420000  55.3700000   2.9510000  49.5680000  55.8840000   3.7890000
  47.5070000  52.7870000  12.4870000  53.3460000  55.2720000   0.9680000
  54.3720000  54.1600000   2.2760000  51.1700000  56.0290000   1.6970000
  52.1280000  55.9860000   0.7390000  54.0120000  55.2490000   0.2920000
  50.3680000  56.5110000   1.5310000  51.9900000  56.4320000  -0.0890000
  51.7150000  60.9950000   7.6140000  51.8860000  60.3180000   8.8380000
  52.6910000  60.9890000   6.6100000  50.4710000  61.7240000   7.3820000
  52.6870000  59.8300000   8.9900000  50.9130000  60.3450000   9.8280000
  53.5040000  60.5170000   6.7410000  52.5200000  61.6700000   5.3970000
  49.4870000  61.7290000   8.4010000  50.3000000  62.4040000   6.1690000
  49.6820000  61.0690000   9.6010000  51.0850000  59.6850000  11.0820000
  53.5050000  61.6650000   4.3780000  51.2760000  62.3990000   5.1650000
  48.6720000  62.1960000   8.2560000  49.4870000  62.8760000   6.0380000
  48.6980000  61.0860000  10.6390000  51.8870000  59.2040000  11.2470000
  50.1270000  59.7280000  12.0400000  53.3090000  62.3240000   3.1770000
  54.3190000  61.1970000   4.5230000  51.1060000  63.0750000   3.9410000
  48.9090000  60.4430000  11.8110000  47.8830000  61.5550000  10.5020000
  50.2650000  59.2830000  12.8680000  54.2930000  62.3070000   2.1400000
  52.0780000  63.0480000   2.9510000  50.3050000  63.5630000   3.7890000
  48.2430000  60.4660000  12.4870000  54.0820000  62.9510000   0.9680000
  55.1080000  61.8380000   2.2760000  51.9060000  63.7080000   1.6970000
  52.8640000  63.6650000   0.7390000  54.7490000  62.9270000   0.2920000
  51.1040000  64.1890000   1.5310000  52.7260000  64.1100000  -0.0890000
  52.7180000  67.5480000  35.7270000  52.8880000  66.8720000  36.9520000
  53.6930000  67.5430000  34.7240000  51.4730000  68.2770000  35.4960000
  53.6890000  66.3840000  37.1040000  51.9150000  66.8990000  37.9410000
  54.5070000  67.0710000  34.8550000  53.5230000  68.2230000  33.5110000
  50.4890000  68.2820000  36.5150000  51.3030000  68.9580000  34.2820000
  50.6850000  67.6230000  37.7150000  52.0870000  66.2390000  39.1950000
  54.5070000  68.2180000  32.4920000  52.2790000  68.9520000  33.2790000
  49.6750000  68.7500000  36.3700000  50.4890000  69.4300000  34.1520000
  49.7010000  67.6400000  38.7520000  52.8900000  65.7580000  39.3610000
  51.1300000  66.2820000  40.1540000  54.3110000  68.8780000  31.2910000
  55.3210000  67.7510000  32.6360000  52.1080000  69.6290000  32.0540000
  49.9120000  66.9960000  39.9250000  48.8860000  68.1090000  38.6160000
  51.2680000  65.8370000  40.9820000  55.2960000  68.8610000  30.2540000
  53.0810000  69.6020000  31.0650000  51.3070000  70.1170000  31.9030000
  49.2450000  67.0200000  40.6010000  55.0850000  69.5040000  29.0810000
  56.1100000  68.3920000  30.3900000  52.9090000  70.2620000  29.8110000
  53.8670000  70.2190000  28.8520000  55.7510000  69.4810000  28.4050000
  52.1060000  70.7430000  29.6450000  53.7280000  70.6640000  28.0240000
  52.2160000  64.2710000  21.6710000  52.3870000  63.5950000  22.8950000
  53.1920000  64.2660000  20.6670000  50.9720000  65.0010000  21.4390000
  53.1880000  63.1070000  23.0470000  51.4140000  63.6220000  23.8850000
  54.0060000  63.7940000  20.7980000  53.0220000  64.9460000  19.4540000
  49.9880000  65.0050000  22.4580000  50.8020000  65.6810000  20.2260000
  50.1840000  64.3460000  23.6580000  51.5860000  62.9620000  25.1380000
  54.0060000  64.9410000  18.4350000  51.7770000  65.6760000  19.2220000
  49.1740000  65.4730000  22.3130000  49.9880000  66.1530000  20.0950000
  49.1990000  64.3630000  24.6960000  52.3890000  62.4810000  25.3040000
  50.6280000  63.0050000  26.0970000  53.8100000  65.6010000  17.2340000
  54.8200000  64.4740000  18.5800000  51.6070000  66.3520000  17.9980000
  49.4100000  63.7200000  25.8680000  48.3850000  64.8320000  24.5590000
  50.7670000  62.5600000  26.9250000  54.7940000  65.5840000  16.1970000
  52.5800000  66.3250000  17.0080000  50.8060000  66.8400000  17.8460000
  48.7440000  63.7430000  26.5440000  54.5830000  66.2270000  15.0250000
  55.6090000  65.1150000  16.3330000  52.4080000  66.9850000  15.7540000
  53.3650000  66.9420000  14.7950000  55.2500000  66.2040000  14.3480000
  51.6050000  67.4660000  15.5880000  53.2270000  67.3870000  13.9670000
  52.5140000  73.3540000  19.2220000  52.3430000  74.0310000  17.9980000
  51.5380000  73.3590000  20.2260000  53.7580000  72.6250000  19.4540000
  51.5420000  74.5180000  17.8460000  53.3160000  74.0040000  17.0080000
  50.7240000  73.8320000  20.0950000  51.7080000  72.6790000  21.4390000
  54.7420000  72.6200000  18.4350000  53.9280000  71.9450000  20.6670000
  54.5460000  73.2790000  17.2340000  53.1440000  74.6630000  15.7540000
  50.7240000  72.6840000  22.4580000  52.9520000  71.9500000  21.6710000
  55.5560000  72.1520000  18.5800000  54.7420000  71.4720000  20.7980000
  55.5310000  73.2620000  16.1970000  52.3410000  75.1450000  15.5880000
  54.1020000  74.6200000  14.7950000  50.9200000  72.0250000  23.6580000
  49.9100000  73.1520000  22.3130000  53.1230000  71.2730000  22.8950000
  55.3190000  73.9060000  15.0250000  56.3450000  72.7940000  16.3330000
  53.9630000  75.0660000  13.9670000  49.9350000  72.0420000  24.6960000
  52.1500000  71.3010000  23.8850000  53.9240000  70.7860000  23.0470000
  55.9860000  73.8830000  14.3480000  50.1470000  71.3980000  25.8680000
  49.1210000  72.5110000  24.5590000  52.3220000  70.6410000  25.1380000
  51.3640000  70.6840000  26.0970000  49.4800000  71.4210000  26.5440000
  53.1250000  70.1590000  25.3040000  51.5030000  70.2390000  26.9250000
  53.4540000  75.2270000  35.7270000  53.6240000  74.5500000  36.9520000
  54.4290000  75.2220000  34.7240000  52.2100000  75.9560000  35.4960000
  54.4250000  74.0630000  37.1040000  52.6520000  74.5770000  37.9410000
  55.2430000  74.7490000  34.8550000  54.2590000  75.9020000  33.5110000
  51.2250000  75.9610000  36.5150000  52.0390000  76.6360000  34.2820000
  51.4210000  75.3020000  37.7150000  52.8230000  73.9170000  39.1950000
  55.2430000  75.8970000  32.4920000  53.0150000  76.6310000  33.2790000
  50.4110000  76.4290000  36.3700000  51.2250000  77.1090000  34.1520000
  50.4370000  75.3190000  38.7520000  53.6260000  73.4360000  39.3610000
  51.8660000  73.9610000  40.1540000  55.0480000  76.5560000  31.2910000
  56.0580000  75.4290000  32.6360000  52.8440000  77.3080000  32.0540000
  50.6480000  74.6750000  39.9250000  49.6220000  75.7870000  38.6160000
  52.0040000  73.5150000  40.9820000  56.0320000  76.5390000  30.2540000
  53.8170000  77.2800000  31.0650000  52.0430000  77.7950000  31.9030000
  49.9810000  74.6980000  40.6010000  55.8210000  77.1830000  29.0810000
  56.8470000  76.0700000  30.3900000  53.6450000  77.9400000  29.8110000
  54.6030000  77.8970000  28.8520000  56.4870000  77.1600000  28.4050000
  52.8430000  78.4210000  29.6450000  54.4640000  78.3420000  28.0240000
  52.4510000  68.6730000   7.6140000  52.6220000  67.9960000   8.8380000
  53.4270000  68.6680000   6.6100000  51.2070000  69.4020000   7.3820000
  53.4230000  67.5090000   8.9900000  51.6490000  68.0240000   9.8280000
  54.2410000  68.1960000   6.7410000  53.2560000  69.3480000   5.3970000
  50.2230000  69.4070000   8.4010000  51.0370000  70.0820000   6.1690000
  50.4180000  68.7480000   9.6010000  51.8210000  67.3640000  11.0820000
  54.2410000  69.3430000   4.3780000  52.0120000  70.0770000   5.1650000
  49.4080000  69.8750000   8.2560000  50.2230000  70.5550000   6.0380000
  49.4340000  68.7650000  10.6390000  52.6230000  66.8830000  11.2470000
  50.8630000  67.4070000  12.0400000  54.0450000  70.0020000   3.1770000
  55.0550000  68.8760000   4.5230000  51.8420000  70.7540000   3.9410000
  49.6450000  68.1210000  11.8110000  48.6190000  69.2340000  10.5020000
  51.0020000  66.9620000  12.8680000  55.0290000  69.9860000   2.1400000
  52.8140000  70.7270000   2.9510000  51.0410000  71.2420000   3.7890000
  48.9790000  68.1450000  12.4870000  54.8180000  70.6290000   0.9680000
  55.8440000  69.5170000   2.2760000  52.6430000  71.3870000   1.6970000
  53.6000000  71.3440000   0.7390000  55.4850000  70.6060000   0.2920000
  51.8400000  71.8680000   1.5310000  53.4620000  71.7890000  -0.0890000
  53.6890000  79.6290000  21.6710000  53.8590000  78.9520000  22.8950000
  54.6640000  79.6230000  20.6670000  52.4440000  80.3580000  21.4390000
  54.6600000  78.4640000  23.0470000  52.8860000  78.9790000  23.8850000
  55.4780000  79.1510000  20.7980000  54.4940000  80.3040000  19.4540000
  51.4600000  80.3630000  22.4580000  52.2740000  81.0380000  20.2260000
  51.6560000  79.7030000  23.6580000  53.0580000  78.3190000  25.1380000
  55.4780000  80.2990000  18.4350000  53.2500000  81.0330000  19.2220000
  50.6460000  80.8300000  22.3130000  51.4600000  81.5100000  20.0950000
  50.6720000  79.7200000  24.6960000  53.8610000  77.8380000  25.3040000
  52.1010000  78.3620000  26.0970000  55.2820000  80.9580000  17.2340000
  56.2920000  79.8310000  18.5800000  53.0790000  81.7090000  17.9980000
  50.8830000  79.0770000  25.8680000  49.8570000  80.1890000  24.5590000
  52.2390000  77.9170000  26.9250000  56.2670000  80.9410000  16.1970000
  54.0520000  81.6820000  17.0080000  52.2780000  82.1970000  17.8460000
  50.2160000  79.1000000  26.5440000  56.0560000  81.5850000  15.0250000
  57.0810000  80.4720000  16.3330000  53.8800000  82.3420000  15.7540000
  54.8380000  82.2990000  14.7950000  56.7220000  81.5610000  14.3480000
  53.0770000  82.8230000  15.5880000  54.6990000  82.7440000  13.9670000
  54.6910000  86.1820000  49.7840000  54.8620000  85.5060000  51.0090000
  55.6670000  86.1770000  48.7810000  53.4470000  86.9110000  49.5520000
  55.6630000  85.0180000  51.1600000  53.8890000  85.5330000  51.9980000
  56.4810000  85.7050000  48.9110000  55.4960000  86.8570000  47.5670000
  52.4630000  86.9160000  50.5710000  53.2760000  87.5920000  48.3390000
  52.6580000  86.2570000  51.7720000  54.0610000  84.8730000  53.2520000
  56.4810000  86.8520000  46.5480000  54.2520000  87.5860000  47.3360000
  51.6480000  87.3840000  50.4270000  52.4630000  88.0640000  48.2080000
  51.6740000  86.2740000  52.8090000  54.8630000  84.3920000  53.4180000
  53.1030000  84.9160000  54.2110000  56.2850000  87.5120000  45.3480000
  57.2950000  86.3850000  46.6930000  54.0820000  88.2630000  46.1110000
  51.8850000  85.6300000  53.9820000  50.8590000  86.7430000  52.6730000
  53.2420000  84.4710000  55.0390000  57.2690000  87.4950000  44.3110000
  55.0540000  88.2360000  45.1220000  53.2810000  88.7510000  45.9590000
  51.2190000  85.6540000  54.6580000  57.0580000  88.1380000  43.1380000
  58.0840000  87.0260000  44.4470000  54.8830000  88.8960000  43.8680000
  55.8400000  88.8530000  42.9090000  57.7250000  88.1150000  42.4620000
  54.0800000  89.3770000  43.7020000  55.7020000  89.2980000  42.0810000
  53.7510000  84.3100000  33.2790000  53.5800000  84.9860000  32.0540000
  52.7750000  84.3150000  34.2820000  54.9950000  83.5800000  33.5110000
  52.7790000  85.4740000  31.9030000  54.5530000  84.9590000  31.0650000
  51.9610000  84.7870000  34.1520000  52.9460000  83.6350000  35.4960000
  55.9790000  83.5750000  32.4920000  55.1660000  82.9000000  34.7240000
  55.7840000  84.2350000  31.2910000  54.3810000  85.6190000  29.8110000
  51.9610000  83.6400000  36.5150000  54.1900000  82.9050000  35.7270000
  56.7940000  83.1080000  32.6360000  55.9790000  82.4280000  34.8550000
  56.7680000  84.2180000  30.2540000  53.5790000  86.1000000  29.6450000
  55.3390000  85.5760000  28.8520000  52.1570000  82.9800000  37.7150000
  51.1470000  84.1070000  36.3700000  54.3600000  82.2290000  36.9520000
  56.5570000  84.8610000  29.0810000  57.5830000  83.7490000  30.3900000
  55.2000000  86.0210000  28.0240000  51.1730000  82.9970000  38.7520000
  53.3880000  82.2560000  37.9410000  55.1610000  81.7410000  37.1040000
  57.2230000  84.8380000  28.4050000  51.3840000  82.3540000  39.9250000
  50.3580000  83.4660000  38.6160000  53.5590000  81.5960000  39.1950000
  52.6020000  81.6390000  40.1540000  50.7170000  82.3770000  40.6010000
  54.3620000  81.1150000  39.3610000  52.7400000  81.1940000  40.9820000
  55.7560000  97.4170000  89.5060000  55.5860000  98.0940000  88.2820000
  54.7800000  97.4220000  90.5100000  57.0000000  96.6880000  89.7380000
  54.7840000  98.5810000  88.1300000  56.5580000  98.0660000  87.2920000
  53.9670000  97.8950000  90.3790000  54.9510000  96.7420000  91.7230000
  57.9840000  96.6830000  88.7190000  57.1710000  96.0080000  90.9510000
  57.7890000  97.3420000  87.5180000  56.3860000  98.7260000  86.0380000
  53.9660000  96.7470000  92.7420000  56.1950000  96.0130000  91.9550000
  58.7990000  96.2150000  88.8640000  57.9840000  95.5350000  91.0820000
  58.7730000  97.3250000  86.4810000  55.5840000  99.2070000  85.8720000
  57.3440000  98.6830000  85.0800000  54.1620000  96.0880000  93.9420000
  53.1520000  97.2140000  92.5970000  56.3650000  95.3360000  93.1790000
  58.5620000  97.9690000  85.3090000  59.5880000  96.8560000  86.6170000
  57.2060000  99.1280000  84.2520000  53.1780000  96.1040000  94.9800000
  55.3930000  95.3630000  94.1690000  57.1670000  94.8490000  93.3310000
  59.2280000  97.9460000  84.6320000  53.3890000  95.4610000  96.1520000
  52.3630000  96.5730000  94.8430000  55.5650000  94.7030000  95.4230000
  54.6070000  94.7460000  96.3810000  52.7230000  95.4840000  96.8280000
  56.3670000  94.2220000  95.5880000  54.7450000  94.3010000  97.2090000
  48.5670000  20.3520000  63.8410000  48.7380000  19.6750000  65.0650000
  49.5430000  20.3470000  62.8370000  47.3230000  21.0810000  63.6090000
  49.5390000  19.1880000  65.2170000  47.7650000  19.7020000  66.0550000
  50.3570000  19.8740000  62.9680000  49.3720000  21.0270000  61.6240000
  46.3390000  21.0860000  64.6280000  47.1530000  21.7610000  62.3960000
  46.5340000  20.4270000  65.8290000  47.9370000  19.0420000  67.3090000
  50.3570000  21.0220000  60.6050000  48.1280000  21.7560000  61.3920000
  45.5250000  21.5530000  64.4830000  46.3390000  22.2330000  62.2650000
  45.5500000  20.4430000  66.8660000  48.7400000  18.5610000  67.4750000
  46.9790000  19.0850000  68.2680000  50.1610000  21.6810000  59.4050000
  51.1710000  20.5540000  60.7500000  47.9580000  22.4330000  60.1680000
  45.7610000  19.8000000  68.0380000  44.7360000  20.9120000  66.7300000
  47.1180000  18.6400000  69.0960000  51.1450000  21.6640000  58.3670000
  48.9310000  22.4050000  59.1780000  47.1570000  22.9200000  60.0160000
  45.0950000  19.8230000  68.7150000  50.9340000  22.3080000  57.1950000
  51.9600000  21.1950000  58.5040000  48.7590000  23.0650000  57.9250000
  49.7160000  23.0220000  56.9660000  51.6010000  22.2840000  56.5190000
  47.9560000  23.5460000  57.7590000  49.5780000  23.4670000  56.1380000
  49.1310000  28.3100000  89.5060000  48.9600000  28.9860000  88.2820000
  48.1550000  28.3150000  90.5100000  50.3750000  27.5800000  89.7380000
  48.1590000  29.4740000  88.1300000  49.9330000  28.9590000  87.2920000
  47.3410000  28.7870000  90.3790000  48.3260000  27.6350000  91.7230000
  51.3590000  27.5750000  88.7190000  50.5460000  26.9000000  90.9510000
  51.1640000  28.2350000  87.5180000  49.7610000  29.6190000  86.0380000
  47.3410000  27.6390000  92.7420000  49.5700000  26.9050000  91.9550000
  52.1740000  27.1080000  88.8640000  51.3590000  26.4280000  91.0820000
  52.1480000  28.2180000  86.4810000  48.9590000  30.1000000  85.8720000
  50.7190000  29.5760000  85.0800000  47.5370000  26.9800000  93.9420000
  46.5270000  28.1070000  92.5970000  49.7400000  26.2290000  93.1790000
  51.9370000  28.8610000  85.3090000  52.9630000  27.7490000  86.6170000
  50.5800000  30.0210000  84.2520000  46.5530000  26.9970000  94.9800000
  48.7680000  26.2560000  94.1690000  50.5410000  25.7410000  93.3310000
  52.6030000  28.8380000  84.6320000  46.7640000  26.3540000  96.1520000
  45.7380000  27.4660000  94.8430000  48.9390000  25.5960000  95.4230000
  47.9820000  25.6390000  96.3810000  46.0970000  26.3770000  96.8280000
  49.7420000  25.1150000  95.5880000  48.1200000  25.1940000  97.2090000
  47.6270000  18.4790000  47.3360000  47.4570000  19.1560000  46.1110000
  46.6510000  18.4840000  48.3390000  48.8710000  17.7500000  47.5670000
  46.6550000  19.6430000  45.9590000  48.4290000  19.1290000  45.1220000
  45.8380000  18.9570000  48.2080000  46.8220000  17.8040000  49.5520000
  49.8560000  17.7450000  46.5480000  49.0420000  17.0700000  48.7810000
  49.6600000  18.4040000  45.3480000  48.2570000  19.7880000  43.8680000
  45.8380000  17.8090000  50.5710000  48.0660000  17.0750000  49.7840000
  50.6700000  17.2770000  46.6930000  49.8550000  16.5970000  48.9110000
  50.6440000  18.3870000  44.3110000  47.4550000  20.2700000  43.7020000
  49.2150000  19.7450000  42.9090000  46.0330000  17.1500000  51.7720000
  45.0230000  18.2770000  50.4270000  48.2360000  16.3980000  51.0090000
  50.4330000  19.0310000  43.1380000  51.4590000  17.9190000  44.4470000
  49.0770000  20.1900000  42.0810000  45.0490000  17.1670000  52.8090000
  47.2640000  16.4250000  51.9980000  49.0380000  15.9110000  51.1600000
  51.0990000  19.0080000  42.4620000  45.2600000  16.5230000  53.9820000
  44.2340000  17.6350000  52.6730000  47.4360000  15.7660000  53.2520000
  46.4780000  15.8090000  54.2110000  44.5940000  16.5460000  54.6580000
  48.2380000  15.2840000  53.4180000  46.6160000  15.3630000  55.0390000
  48.6300000  25.0330000  75.4490000  48.4590000  25.7090000  74.2250000
  47.6540000  25.0380000  76.4530000  49.8740000  24.3040000  75.6810000
  47.6580000  26.1970000  74.0730000  49.4320000  25.6820000  73.2350000
  46.8400000  25.5100000  76.3220000  47.8240000  24.3580000  77.6660000
  50.8580000  24.2990000  74.6620000  50.0440000  23.6230000  76.8940000
  50.6620000  24.9580000  73.4620000  49.2600000  26.3420000  71.9810000
  46.8400000  24.3630000  78.6850000  49.0690000  23.6290000  77.8980000
  51.6720000  23.8310000  74.8070000  50.8580000  23.1510000  77.0250000
  51.6470000  24.9410000  72.4240000  48.4570000  26.8230000  71.8150000
  50.2180000  26.2990000  71.0230000  47.0360000  23.7030000  79.8860000
  46.0260000  24.8300000  78.5400000  49.2390000  22.9520000  79.1220000
  51.4350000  25.5850000  71.2520000  52.4610000  24.4720000  72.5610000
  50.0790000  26.7440000  70.1950000  46.0510000  23.7200000  80.9230000
  48.2660000  22.9790000  80.1120000  50.0400000  22.4640000  79.2740000
  52.1020000  25.5610000  70.5760000  46.2630000  23.0770000  82.0950000
  45.2370000  24.1890000  80.7870000  48.4380000  22.3190000  81.3660000
  47.4810000  22.3620000  82.3240000  45.5960000  23.1000000  82.7710000
  49.2410000  21.8380000  81.5320000  47.6190000  21.9170000  83.1520000
  47.8620000  22.8810000  33.2790000  47.6920000  23.5580000  32.0540000
  46.8860000  22.8860000  34.2820000  49.1060000  22.1520000  33.5110000
  46.8900000  24.0450000  31.9030000  48.6640000  23.5300000  31.0650000
  46.0730000  23.3580000  34.1520000  47.0570000  22.2060000  35.4960000
  50.0900000  22.1470000  32.4920000  49.2770000  21.4720000  34.7240000
  49.8950000  22.8060000  31.2910000  48.4920000  24.1900000  29.8110000
  46.0720000  22.2110000  36.5150000  48.3010000  21.4770000  35.7270000
  50.9050000  21.6790000  32.6360000  50.0900000  20.9990000  34.8550000
  50.8790000  22.7890000  30.2540000  47.6900000  24.6710000  29.6450000
  49.4500000  24.1470000  28.8520000  46.2680000  21.5510000  37.7150000
  45.2580000  22.6780000  36.3700000  48.4710000  20.8000000  36.9520000
  50.6680000  23.4330000  29.0810000  51.6940000  22.3200000  30.3900000
  49.3120000  24.5920000  28.0240000  45.2840000  21.5680000  38.7520000
  47.4990000  20.8270000  37.9410000  49.2730000  20.3120000  37.1040000
  51.3340000  23.4090000  28.4050000  45.4950000  20.9250000  39.9250000
  44.4690000  22.0370000  38.6160000  47.6710000  20.1670000  39.1950000
  46.7130000  20.2100000  40.1540000  44.8290000  20.9480000  40.6010000
  48.4730000  19.6860000  39.3610000  46.8510000  19.7650000  40.9820000
  49.3660000  32.7110000  75.4490000  49.1950000  33.3880000  74.2250000
  48.3900000  32.7160000  76.4530000  50.6100000  31.9820000  75.6810000
  48.3940000  33.8760000  74.0730000  50.1680000  33.3610000  73.2350000
  47.5760000  33.1890000  76.3220000  48.5610000  32.0360000  77.6660000
  51.5940000  31.9770000  74.6620000  50.7800000  31.3020000  76.8940000
  51.3990000  32.6360000  73.4620000  49.9960000  34.0210000  71.9810000
  47.5760000  32.0410000  78.6850000  49.8050000  31.3070000  77.8980000
  52.4090000  31.5100000  74.8070000  51.5940000  30.8300000  77.0250000
  52.3830000  32.6200000  72.4240000  49.1930000  34.5020000  71.8150000
  50.9540000  33.9780000  71.0230000  47.7720000  31.3820000  79.8860000
  46.7620000  32.5090000  78.5400000  49.9750000  30.6300000  79.1220000
  52.1720000  33.2630000  71.2520000  53.1980000  32.1510000  72.5610000
  50.8150000  34.4230000  70.1950000  46.7880000  31.3990000  80.9230000
  49.0030000  30.6580000  80.1120000  50.7760000  30.1430000  79.2740000
  52.8380000  33.2400000  70.5760000  46.9990000  30.7550000  82.0950000
  45.9730000  31.8680000  80.7870000  49.1740000  29.9980000  81.3660000
  48.2170000  30.0410000  82.3240000  46.3320000  30.7790000  82.7710000
  49.9770000  29.5170000  81.5320000  48.3550000  29.5960000  83.1520000
  47.2980000  14.9230000   7.6140000  47.4690000  14.2460000   8.8380000
  48.2740000  14.9180000   6.6100000  46.0540000  15.6520000   7.3820000
  48.2700000  13.7590000   8.9900000  46.4960000  14.2740000   9.8280000
  49.0880000  14.4450000   6.7410000  48.1040000  15.5980000   5.3970000
  45.0700000  15.6570000   8.4010000  45.8840000  16.3320000   6.1690000
  45.2660000  14.9980000   9.6010000  46.6680000  13.6140000  11.0820000
  49.0880000  15.5930000   4.3780000  46.8590000  16.3270000   5.1650000
  44.2560000  16.1250000   8.2560000  45.0700000  16.8050000   6.0380000
  44.2810000  15.0150000  10.6390000  47.4710000  13.1320000  11.2470000
  45.7100000  13.6570000  12.0400000  48.8920000  16.2520000   3.1770000
  49.9020000  15.1250000   4.5230000  46.6890000  17.0040000   3.9410000
  44.4930000  14.3710000  11.8110000  43.4670000  15.4840000  10.5020000
  45.8490000  13.2120000  12.8680000  49.8760000  16.2350000   2.1400000
  47.6620000  16.9770000   2.9510000  45.8880000  17.4910000   3.7890000
  43.8260000  14.3940000  12.4870000  49.6650000  16.8790000   0.9680000
  50.6910000  15.7670000   2.2760000  47.4900000  17.6360000   1.6970000
  48.4470000  17.5930000   0.7390000  50.3320000  16.8560000   0.2920000
  46.6870000  18.1180000   1.5310000  48.3090000  18.0390000  -0.0890000
  48.3630000  26.1580000  47.3360000  48.1930000  26.8340000  46.1110000
  47.3870000  26.1630000  48.3390000  49.6070000  25.4280000  47.5670000
  47.3920000  27.3220000  45.9590000  49.1650000  26.8070000  45.1220000
  46.5740000  26.6350000  48.2080000  47.5580000  25.4830000  49.5520000
  50.5920000  25.4240000  46.5480000  49.7780000  24.7480000  48.7810000
  50.3960000  26.0830000  45.3480000  48.9940000  27.4670000  43.8680000
  46.5740000  25.4880000  50.5710000  48.8020000  24.7540000  49.7840000
  51.4060000  24.9560000  46.6930000  50.5920000  24.2760000  48.9110000
  51.3800000  26.0660000  44.3110000  48.1910000  27.9480000  43.7020000
  49.9510000  27.4240000  42.9090000  46.7690000  24.8280000  51.7720000
  45.7590000  25.9550000  50.4270000  48.9730000  24.0770000  51.0090000
  51.1690000  26.7100000  43.1380000  52.1950000  25.5970000  44.4470000
  49.8130000  27.8690000  42.0810000  45.7850000  24.8450000  52.8090000
  48.0000000  24.1040000  51.9980000  49.7740000  23.5890000  51.1600000
  51.8360000  26.6860000  42.4620000  45.9960000  24.2020000  53.9820000
  44.9700000  25.3140000  52.6730000  48.1720000  23.4440000  53.2520000
  47.2140000  23.4870000  54.2110000  45.3300000  24.2250000  54.6580000
  48.9740000  22.9630000  53.4180000  47.3530000  23.0420000  55.0390000
  48.8640000  29.4340000  61.3920000  48.6940000  30.1110000  60.1680000
  47.8890000  29.4400000  62.3960000  50.1090000  28.7050000  61.6240000
  47.8930000  30.5990000  60.0160000  49.6670000  30.0840000  59.1780000
  47.0750000  29.9120000  62.2650000  48.0590000  28.7590000  63.6090000
  51.0930000  28.7000000  60.6050000  50.2790000  28.0250000  62.8370000
  50.8970000  29.3600000  59.4050000  49.4950000  30.7440000  57.9250000
  47.0750000  28.7640000  64.6280000  49.3030000  28.0300000  63.8410000
  51.9070000  28.2330000  60.7500000  51.0930000  27.5530000  62.9680000
  51.8820000  29.3430000  58.3670000  48.6920000  31.2250000  57.7590000
  50.4520000  30.7010000  56.9660000  47.2710000  28.1050000  65.8290000
  46.2610000  29.2320000  64.4830000  49.4740000  27.3540000  65.0650000
  51.6700000  29.9860000  57.1950000  52.6960000  28.8740000  58.5040000
  50.3140000  31.1460000  56.1380000  46.2860000  28.1220000  66.8660000
  48.5010000  27.3810000  66.0550000  50.2750000  26.8660000  65.2170000
  52.3370000  29.9630000  56.5190000  46.4980000  27.4780000  68.0380000
  45.4720000  28.5910000  66.7300000  48.6730000  26.7210000  67.3090000
  47.7150000  26.7640000  68.2680000  45.8310000  27.5020000  68.7150000
  49.4760000  26.2400000  67.4750000  47.8540000  26.3190000  69.0960000
  49.8670000  35.9880000  89.5060000  49.6970000  36.6650000  88.2820000
  48.8910000  35.9930000  90.5100000  51.1110000  35.2590000  89.7380000
  48.8950000  37.1520000  88.1300000  50.6690000  36.6380000  87.2920000
  48.0780000  36.4660000  90.3790000  49.0620000  35.3130000  91.7230000
  52.0950000  35.2540000  88.7190000  51.2820000  34.5790000  90.9510000
  51.9000000  35.9130000  87.5180000  50.4970000  37.2970000  86.0380000
  48.0770000  35.3180000  92.7420000  50.3060000  34.5840000  91.9550000
  52.9100000  34.7860000  88.8640000  52.0950000  34.1060000  91.0820000
  52.8840000  35.8960000  86.4810000  49.6950000  37.7790000  85.8720000
  51.4550000  37.2540000  85.0800000  48.2730000  34.6590000  93.9420000
  47.2630000  35.7860000  92.5970000  50.4760000  33.9070000  93.1790000
  52.6730000  36.5400000  85.3090000  53.6990000  35.4280000  86.6170000
  51.3170000  37.7000000  84.2520000  47.2890000  34.6760000  94.9800000
  49.5040000  33.9340000  94.1690000  51.2780000  33.4200000  93.3310000
  53.3390000  36.5170000  84.6320000  47.5000000  34.0320000  96.1520000
  46.4740000  35.1450000  94.8430000  49.6760000  33.2750000  95.4230000
  48.7180000  33.3180000  96.3810000  46.8340000  34.0550000  96.8280000
  50.4780000  32.7930000  95.5880000  48.8560000  32.8730000  97.2090000
  50.5410000  38.9860000  77.8980000  50.7110000  38.3090000  79.1220000
  51.5170000  38.9810000  76.8940000  49.2970000  39.7150000  77.6660000
  51.5120000  37.8220000  79.2740000  49.7390000  38.3360000  80.1120000
  52.3300000  38.5080000  77.0250000  51.3460000  39.6610000  75.6810000
  48.3120000  39.7200000  78.6850000  49.1260000  40.3950000  76.4530000
  48.5080000  39.0610000  79.8860000  49.9100000  37.6760000  81.3660000
  52.3300000  39.6560000  74.6620000  50.1020000  40.3900000  75.4490000
  47.4980000  40.1870000  78.5400000  48.3120000  40.8680000  76.3220000
  47.5240000  39.0770000  80.9230000  50.7130000  37.1950000  81.5320000
  48.9530000  37.7190000  82.3240000  52.1350000  40.3150000  73.4620000
  53.1450000  39.1880000  74.8070000  49.9310000  41.0670000  74.2250000
  47.7350000  38.4340000  82.0950000  46.7090000  39.5460000  80.7870000
  49.0910000  37.2740000  83.1520000  53.1190000  40.2980000  72.4240000
  50.9040000  41.0390000  73.2350000  49.1300000  41.5540000  74.0730000
  47.0680000  38.4570000  82.7710000  52.9080000  40.9420000  71.2520000
  53.9340000  39.8290000  72.5610000  50.7320000  41.6990000  71.9810000
  51.6900000  41.6560000  71.0230000  53.5740000  40.9190000  70.5760000
  49.9300000  42.1800000  71.8150000  51.5510000  42.1010000  70.1950000
  49.6010000  37.1130000  61.3920000  49.4300000  37.7900000  60.1680000
  48.6250000  37.1180000  62.3960000  50.8450000  36.3840000  61.6240000
  48.6290000  38.2770000  60.0160000  50.4030000  37.7630000  59.1780000
  47.8110000  37.5910000  62.2650000  48.7950000  36.4380000  63.6090000
  51.8290000  36.3790000  60.6050000  51.0150000  35.7040000  62.8370000
  51.6330000  37.0380000  59.4050000  50.2310000  38.4220000  57.9250000
  47.8110000  36.4430000  64.6280000  50.0400000  35.7090000  63.8410000
  52.6430000  35.9110000  60.7500000  51.8290000  35.2310000  62.9680000
  52.6180000  37.0210000  58.3670000  49.4280000  38.9040000  57.7590000
  51.1890000  38.3790000  56.9660000  48.0070000  35.7840000  65.8290000
  46.9970000  36.9110000  64.4830000  50.2100000  35.0320000  65.0650000
  52.4060000  37.6650000  57.1950000  53.4320000  36.5530000  58.5040000
  51.0500000  38.8240000  56.1380000  47.0220000  35.8010000  66.8660000
  49.2370000  35.0590000  66.0550000  51.0110000  34.5450000  65.2170000
  53.0730000  37.6420000  56.5190000  47.2340000  35.1570000  68.0380000
  46.2080000  36.2690000  66.7300000  49.4090000  34.4000000  67.3090000
  48.4520000  34.4430000  68.2680000  46.5670000  35.1800000  68.7150000
  50.2120000  33.9180000  67.4750000  48.5900000  33.9980000  69.0960000
  50.6030000  43.6670000  89.5060000  50.4330000  44.3430000  88.2820000
  49.6270000  43.6720000  90.5100000  51.8470000  42.9380000  89.7380000
  49.6310000  44.8310000  88.1300000  51.4050000  44.3160000  87.2920000
  48.8140000  44.1440000  90.3790000  49.7980000  42.9920000  91.7230000
  52.8320000  42.9330000  88.7190000  52.0180000  42.2570000  90.9510000
  52.6360000  43.5920000  87.5180000  51.2330000  44.9760000  86.0380000
  48.8140000  42.9970000  92.7420000  51.0420000  42.2630000  91.9550000
  53.6460000  42.4650000  88.8640000  52.8310000  41.7850000  91.0820000
  53.6200000  43.5750000  86.4810000  50.4310000  45.4570000  85.8720000
  52.1910000  44.9330000  85.0800000  49.0090000  42.3370000  93.9420000
  47.9990000  43.4640000  92.5970000  51.2120000  41.5860000  93.1790000
  53.4090000  44.2190000  85.3090000  54.4350000  43.1060000  86.6170000
  52.0530000  45.3780000  84.2520000  48.0250000  42.3540000  94.9800000
  50.2400000  41.6130000  94.1690000  52.0140000  41.0980000  93.3310000
  54.0750000  44.1950000  84.6320000  48.2360000  41.7110000  96.1520000
  47.2100000  42.8230000  94.8430000  50.4120000  40.9530000  95.4230000
  49.4540000  40.9960000  96.3810000  47.5700000  41.7340000  96.8280000
  51.2140000  40.4720000  95.5880000  49.5920000  40.5510000  97.2090000
  50.7760000  43.3880000  63.8410000  50.9460000  42.7110000  65.0650000
  51.7510000  43.3820000  62.8370000  49.5320000  44.1170000  63.6090000
  51.7470000  42.2230000  65.2170000  49.9730000  42.7380000  66.0550000
  52.5650000  42.9100000  62.9680000  51.5810000  44.0620000  61.6240000
  48.5470000  44.1220000  64.6280000  49.3610000  44.7970000  62.3960000
  48.7430000  43.4620000  65.8290000  50.1450000  42.0780000  67.3090000
  52.5650000  44.0580000  60.6050000  50.3370000  44.7920000  61.3920000
  47.7330000  44.5890000  64.4830000  48.5470000  45.2690000  62.2650000
  47.7590000  43.4790000  66.8660000  50.9480000  41.5970000  67.4750000
  49.1880000  42.1210000  68.2680000  52.3700000  44.7170000  59.4050000
  53.3790000  43.5900000  60.7500000  50.1660000  45.4680000  60.1680000
  47.9700000  42.8360000  68.0380000  46.9440000  43.9480000  66.7300000
  49.3260000  41.6760000  69.0960000  53.3540000  44.7000000  58.3670000
  51.1390000  45.4410000  59.1780000  49.3650000  45.9560000  60.0160000
  47.3030000  42.8590000  68.7150000  53.1430000  45.3440000  57.1950000
  54.1680000  44.2310000  58.5040000  50.9670000  46.1010000  57.9250000
  51.9250000  46.0580000  56.9660000  53.8090000  45.3200000  56.5190000
  50.1640000  46.5820000  57.7590000  51.7860000  46.5030000  56.1380000
  50.8380000  48.0680000  75.4490000  50.6680000  48.7450000  74.2250000
  49.8620000  48.0740000  76.4530000  52.0820000  47.3390000  75.6810000
  49.8660000  49.2330000  74.0730000  51.6400000  48.7180000  73.2350000
  49.0490000  48.5460000  76.3220000  50.0330000  47.3940000  77.6660000
  53.0660000  47.3340000  74.6620000  52.2530000  46.6590000  76.8940000
  52.8710000  47.9940000  73.4620000  51.4680000  49.3780000  71.9810000
  49.0480000  47.3980000  78.6850000  51.2770000  46.6640000  77.8980000
  53.8810000  46.8670000  74.8070000  53.0660000  46.1870000  77.0250000
  53.8550000  47.9770000  72.4240000  50.6660000  49.8590000  71.8150000
  52.4260000  49.3350000  71.0230000  49.2440000  46.7390000  79.8860000
  48.2340000  47.8660000  78.5400000  51.4470000  45.9880000  79.1220000
  53.6440000  48.6200000  71.2520000  54.6700000  47.5080000  72.5610000
  52.2880000  49.7800000  70.1950000  48.2600000  46.7560000  80.9230000
  50.4750000  46.0150000  80.1120000  52.2490000  45.5000000  79.2740000
  54.3100000  48.5970000  70.5760000  48.4710000  46.1120000  82.0950000
  47.4450000  47.2250000  80.7870000  50.6470000  45.3550000  81.3660000
  49.6890000  45.3980000  82.3240000  47.8050000  46.1360000  82.7710000
  51.4490000  44.8740000  81.5320000  49.8270000  44.9530000  83.1520000
  52.0130000  54.3430000  77.8980000  52.1830000  53.6660000  79.1220000
  52.9890000  54.3380000  76.8940000  50.7690000  55.0720000  77.6660000
  52.9850000  53.1790000  79.2740000  51.2110000  53.6930000  80.1120000
  53.8020000  53.8650000  77.0250000  52.8180000  55.0180000  75.6810000
  49.7850000  55.0770000  78.6850000  50.5980000  55.7520000  76.4530000
  49.9800000  54.4180000  79.8860000  51.3830000  53.0340000  81.3660000
  53.8030000  55.0130000  74.6620000  51.5740000  55.7470000  75.4490000
  48.9700000  55.5450000  78.5400000  49.7850000  56.2250000  76.3220000
  48.9960000  54.4350000  80.9230000  52.1850000  52.5520000  81.5320000
  50.4250000  53.0770000  82.3240000  53.6070000  55.6720000  73.4620000
  54.6170000  54.5450000  74.8070000  51.4040000  56.4240000  74.2250000
  49.2070000  53.7910000  82.0950000  48.1810000  54.9030000  80.7870000
  50.5630000  52.6320000  83.1520000  54.5910000  55.6550000  72.4240000
  52.3760000  56.3970000  73.2350000  50.6020000  56.9110000  74.0730000
  48.5410000  53.8140000  82.7710000  54.3800000  56.2990000  71.2520000
  55.4060000  55.1870000  72.5610000  52.2040000  57.0560000  71.9810000
  53.1620000  57.0130000  71.0230000  55.0460000  56.2760000  70.5760000
  51.4020000  57.5380000  71.8150000  53.0240000  57.4580000  70.1950000
  52.5140000  57.6200000  91.9550000  52.6850000  56.9430000  93.1790000
  53.4900000  57.6150000  90.9510000  51.2700000  58.3490000  91.7230000
  53.4860000  56.4560000  93.3310000  51.7120000  56.9700000  94.1690000
  54.3040000  57.1420000  91.0820000  53.3190000  58.2950000  89.7380000
  50.2860000  58.3540000  92.7420000  51.1000000  59.0290000  90.5100000
  50.4810000  57.6950000  93.9420000  51.8840000  56.3100000  95.4230000
  54.3040000  58.2900000  88.7190000  52.0750000  59.0240000  89.5060000
  49.4720000  58.8220000  92.5970000  50.2860000  59.5020000  90.3790000
  49.4970000  57.7110000  94.9800000  52.6870000  55.8290000  95.5880000
  50.9260000  56.3530000  96.3810000  54.1080000  58.9490000  87.5180000
  55.1180000  57.8220000  88.8640000  51.9050000  59.7010000  88.2820000
  49.7080000  57.0680000  96.1520000  48.6830000  58.1800000  94.8430000
  51.0650000  55.9080000  97.2090000  55.0920000  58.9320000  86.4810000
  52.8780000  59.6730000  87.2920000  51.1040000  60.1880000  88.1300000
  49.0420000  57.0910000  96.8280000  54.8810000  59.5760000  85.3090000
  55.9070000  58.4630000  86.6170000  52.7060000  60.3330000  86.0380000
  53.6630000  60.2900000  85.0800000  55.5480000  59.5530000  84.6320000
  51.9030000  60.8140000  85.8720000  53.5250000  60.7350000  84.2520000
  51.0730000  52.4700000  61.3920000  50.9020000  53.1470000  60.1680000
  50.0970000  52.4750000  62.3960000  52.3170000  51.7410000  61.6240000
  50.1010000  53.6340000  60.0160000  51.8750000  53.1200000  59.1780000
  49.2830000  52.9480000  62.2650000  50.2680000  51.7950000  63.6090000
  53.3010000  51.7360000  60.6050000  52.4880000  51.0610000  62.8370000
  53.1060000  52.3950000  59.4050000  51.7030000  53.7800000  57.9250000
  49.2830000  51.8000000  64.6280000  51.5120000  51.0660000  63.8410000
  54.1160000  51.2690000  60.7500000  53.3010000  50.5890000  62.9680000
  54.0900000  52.3790000  58.3670000  50.9010000  54.2610000  57.7590000
  52.6610000  53.7370000  56.9660000  49.4790000  51.1410000  65.8290000
  48.4690000  52.2680000  64.4830000  51.6820000  50.3890000  65.0650000
  53.8790000  53.0220000  57.1950000  54.9050000  51.9100000  58.5040000
  52.5220000  54.1820000  56.1380000  48.4950000  51.1580000  66.8660000
  50.7100000  50.4170000  66.0550000  52.4830000  49.9020000  65.2170000
  54.5450000  52.9990000  56.5190000  48.7060000  50.5140000  68.0380000
  47.6800000  51.6270000  66.7300000  50.8810000  49.7570000  67.3090000
  49.9240000  49.8000000  68.2680000  48.0390000  50.5370000  68.7150000
  51.6840000  49.2760000  67.4750000  50.0620000  49.3550000  69.0960000
  56.9310000 103.6910000  91.9550000  57.1010000 103.0150000  93.1790000
  57.9070000 103.6860000  90.9510000  55.6870000 104.4210000  91.7230000
  57.9030000 102.5270000  93.3310000  56.1290000 103.0420000  94.1690000
  58.7200000 103.2140000  91.0820000  57.7360000 104.3660000  89.7380000
  54.7030000 104.4250000  92.7420000  55.5160000 105.1010000  90.5100000
  54.8980000 103.7660000  93.9420000  56.3010000 102.3820000  95.4230000
  58.7210000 104.3610000  88.7190000  56.4920000 105.0950000  89.5060000
  53.8880000 104.8930000  92.5970000  54.7030000 105.5730000  90.3790000
  53.9140000 103.7830000  94.9800000  57.1030000 101.9010000  95.5880000
  55.3430000 102.4250000  96.3810000  58.5250000 105.0210000  87.5180000
  59.5350000 103.8940000  88.8640000  56.3220000 105.7720000  88.2820000
  54.1250000 103.1390000  96.1520000  53.0990000 104.2520000  94.8430000
  55.4810000 101.9800000  97.2090000  59.5090000 105.0040000  86.4810000
  57.2940000 105.7450000  87.2920000  55.5200000 106.2600000  88.1300000
  53.4590000 103.1630000  96.8280000  59.2980000 105.6470000  85.3090000
  60.3240000 104.5350000  86.6170000  57.1220000 106.4050000  86.0380000
  58.0800000 106.3620000  85.0800000  59.9640000 105.6240000  84.6320000
  56.3200000 106.8860000  85.8720000  57.9420000 106.8070000  84.2520000
  51.3080000  56.8720000  47.3360000  51.1370000  57.5490000  46.1110000
  50.3320000  56.8770000  48.3390000  52.5520000  56.1430000  47.5670000
  50.3360000  58.0360000  45.9590000  52.1100000  57.5220000  45.1220000
  49.5180000  57.3500000  48.2080000  50.5030000  56.1970000  49.5520000
  53.5360000  56.1380000  46.5480000  52.7220000  55.4630000  48.7810000
  53.3410000  56.7970000  45.3480000  51.9380000  58.1810000  43.8680000
  49.5180000  56.2020000  50.5710000  51.7470000  55.4680000  49.7840000
  54.3500000  55.6700000  46.6930000  53.5360000  54.9900000  48.9110000
  54.3250000  56.7800000  44.3110000  51.1350000  58.6630000  43.7020000
  52.8960000  58.1380000  42.9090000  49.7140000  55.5430000  51.7720000
  48.7040000  56.6700000  50.4270000  51.9170000  54.7910000  51.0090000
  54.1140000  57.4240000  43.1380000  55.1390000  56.3110000  44.4470000
  52.7570000  58.5830000  42.0810000  48.7300000  55.5600000  52.8090000
  50.9440000  54.8180000  51.9980000  52.7180000  54.3040000  51.1600000
  54.7800000  57.4010000  42.4620000  48.9410000  54.9160000  53.9820000
  47.9150000  56.0280000  52.6730000  51.1160000  54.1590000  53.2520000
  50.1590000  54.2020000  54.2110000  48.2740000  54.9390000  54.6580000
  51.9190000  53.6770000  53.4180000  50.2970000  53.7560000  55.0390000
  51.8090000  60.1490000  61.3920000  51.6390000  60.8260000  60.1680000
  50.8330000  60.1540000  62.3960000  53.0530000  59.4200000  61.6240000
  50.8370000  61.3130000  60.0160000  52.6110000  60.7980000  59.1780000
  50.0200000  60.6260000  62.2650000  51.0040000  59.4740000  63.6090000
  54.0370000  59.4150000  60.6050000  53.2240000  58.7400000  62.8370000
  53.8420000  60.0740000  59.4050000  52.4390000  61.4580000  57.9250000
  50.0190000  59.4790000  64.6280000  52.2480000  58.7450000  63.8410000
  54.8520000  58.9470000  60.7500000  54.0370000  58.2670000  62.9680000
  54.8260000  60.0570000  58.3670000  51.6370000  61.9390000  57.7590000
  53.3970000  61.4150000  56.9660000  50.2150000  58.8200000  65.8290000
  49.2050000  59.9460000  64.4830000  52.4180000  58.0680000  65.0650000
  54.6150000  60.7010000  57.1950000  55.6410000  59.5880000  58.5040000
  53.2590000  61.8600000  56.1380000  49.2310000  58.8360000  66.8660000
  51.4460000  58.0950000  66.0550000  53.2200000  57.5800000  65.2170000
  55.2810000  60.6770000  56.5190000  49.4420000  58.1930000  68.0380000
  48.4160000  59.3050000  66.7300000  51.6180000  57.4350000  67.3090000
  50.6600000  57.4780000  68.2680000  48.7760000  58.2160000  68.7150000
  52.4200000  56.9540000  67.4750000  50.7980000  57.0330000  69.0960000
  52.3100000  63.4260000  75.4490000  52.1400000  64.1020000  74.2250000
  51.3340000  63.4310000  76.4530000  53.5540000  62.6970000  75.6810000
  51.3390000  64.5900000  74.0730000  53.1120000  64.0750000  73.2350000
  50.5210000  63.9030000  76.3220000  51.5050000  62.7510000  77.6660000
  54.5390000  62.6920000  74.6620000  53.7250000  62.0160000  76.8940000
  54.3430000  63.3510000  73.4620000  52.9410000  64.7350000  71.9810000
  50.5210000  62.7560000  78.6850000  52.7490000  62.0220000  77.8980000
  55.3530000  62.2240000  74.8070000  54.5390000  61.5440000  77.0250000
  55.3270000  63.3340000  72.4240000  52.1380000  65.2160000  71.8150000
  53.8980000  64.6920000  71.0230000  50.7160000  62.0960000  79.8860000
  49.7060000  63.2230000  78.5400000  52.9200000  61.3450000  79.1220000
  55.1160000  63.9780000  71.2520000  56.1420000  62.8650000  72.5610000
  53.7600000  65.1370000  70.1950000  49.7320000  62.1130000  80.9230000
  51.9470000  61.3720000  80.1120000  53.7210000  60.8570000  79.2740000
  55.7830000  63.9540000  70.5760000  49.9430000  61.4700000  82.0950000
  48.9170000  62.5820000  80.7870000  52.1190000  60.7120000  81.3660000
  51.1610000  60.7550000  82.3240000  49.2770000  61.4930000  82.7710000
  52.9210000  60.2310000  81.5320000  51.3000000  60.3100000  83.1520000
  53.2500000  65.2980000  91.9550000  53.4210000  64.6220000  93.1790000
  54.2260000  65.2930000  90.9510000  52.0060000  66.0280000  91.7230000
  54.2220000  64.1340000  93.3310000  52.4480000  64.6490000  94.1690000
  55.0400000  64.8210000  91.0820000  54.0560000  65.9730000  89.7380000
  51.0220000  66.0320000  92.7420000  51.8360000  66.7080000  90.5100000
  51.2180000  65.3730000  93.9420000  52.6200000  63.9890000  95.4230000
  55.0400000  65.9680000  88.7190000  52.8110000  66.7030000  89.5060000
  50.2080000  66.5000000  92.5970000  51.0220000  67.1800000  90.3790000
  50.2330000  65.3900000  94.9800000  53.4230000  63.5080000  95.5880000
  51.6620000  64.0320000  96.3810000  54.8440000  66.6280000  87.5180000
  55.8540000  65.5010000  88.8640000  52.6410000  67.3790000  88.2820000
  50.4450000  64.7470000  96.1520000  49.4190000  65.8590000  94.8430000
  51.8010000  63.5870000  97.2090000  55.8290000  66.6110000  86.4810000
  53.6140000  67.3520000  87.2920000  51.8400000  67.8670000  88.1300000
  49.7780000  64.7700000  96.8280000  55.6170000  67.2540000  85.3090000
  56.6430000  66.1420000  86.6170000  53.4420000  68.0120000  86.0380000
  54.3990000  67.9690000  85.0800000  56.2840000  67.2310000  84.6320000
  52.6390000  68.4930000  85.8720000  54.2610000  68.4140000  84.2520000
  52.0440000  64.5510000  47.3360000  51.8730000  65.2270000  46.1110000
  51.0680000  64.5560000  48.3390000  53.2880000  63.8210000  47.5670000
  51.0720000  65.7150000  45.9590000  52.8460000  65.2000000  45.1220000
  50.2540000  65.0280000  48.2080000  51.2390000  63.8760000  49.5520000
  54.2720000  63.8170000  46.5480000  53.4580000  63.1410000  48.7810000
  54.0770000  64.4760000  45.3480000  52.6740000  65.8600000  43.8680000
  50.2540000  63.8810000  50.5710000  52.4830000  63.1460000  49.7840000
  55.0870000  63.3490000  46.6930000  54.2720000  62.6690000  48.9110000
  55.0610000  64.4590000  44.3110000  51.8720000  66.3410000  43.7020000
  53.6320000  65.8170000  42.9090000  50.4500000  63.2210000  51.7720000
  49.4400000  64.3480000  50.4270000  52.6530000  62.4700000  51.0090000
  54.8500000  65.1020000  43.1380000  55.8760000  63.9900000  44.4470000
  53.4930000  66.2620000  42.0810000  49.4660000  63.2380000  52.8090000
  51.6810000  62.4970000  51.9980000  53.4540000  61.9820000  51.1600000
  55.5160000  65.0790000  42.4620000  49.6770000  62.5950000  53.9820000
  48.6510000  63.7070000  52.6730000  51.8520000  61.8370000  53.2520000
  50.8950000  61.8800000  54.2110000  49.0100000  62.6180000  54.6580000
  52.6550000  61.3560000  53.4180000  51.0330000  61.4350000  55.0390000
  53.0460000  71.1040000  75.4490000  52.8760000  71.7810000  74.2250000
  52.0710000  71.1090000  76.4530000  54.2900000  70.3750000  75.6810000
  52.0750000  72.2690000  74.0730000  53.8480000  71.7540000  73.2350000
  51.2570000  71.5820000  76.3220000  52.2410000  70.4290000  77.6660000
  55.2750000  70.3700000  74.6620000  54.4610000  69.6950000  76.8940000
  55.0790000  71.0290000  73.4620000  53.6770000  72.4140000  71.9810000
  51.2570000  70.4340000  78.6850000  53.4850000  69.7000000  77.8980000
  56.0890000  69.9030000  74.8070000  55.2750000  69.2230000  77.0250000
  56.0630000  71.0130000  72.4240000  52.8740000  72.8950000  71.8150000
  54.6340000  72.3710000  71.0230000  51.4520000  69.7750000  79.8860000
  50.4420000  70.9020000  78.5400000  53.6560000  69.0230000  79.1220000
  55.8520000  71.6560000  71.2520000  56.8780000  70.5440000  72.5610000
  54.4960000  72.8160000  70.1950000  50.4680000  69.7920000  80.9230000
  52.6830000  69.0510000  80.1120000  54.4570000  68.5360000  79.2740000
  56.5190000  71.6330000  70.5760000  50.6790000  69.1480000  82.0950000
  49.6540000  70.2610000  80.7870000  52.8550000  68.3910000  81.3660000
  51.8970000  68.4340000  82.3240000  50.0130000  69.1720000  82.7710000
  53.6580000  67.9100000  81.5320000  52.0360000  67.9890000  83.1520000
  53.9870000  72.9770000  91.9550000  54.1570000  72.3000000  93.1790000
  54.9620000  72.9720000  90.9510000  52.7420000  73.7060000  91.7230000
  54.9580000  71.8130000  93.3310000  53.1840000  72.3270000  94.1690000
  55.7760000  72.4990000  91.0820000  54.7920000  73.6520000  89.7380000
  51.7580000  73.7110000  92.7420000  52.5720000  74.3860000  90.5100000
  51.9540000  73.0520000  93.9420000  53.3560000  71.6680000  95.4230000
  55.7760000  73.6470000  88.7190000  53.5480000  74.3810000  89.5060000
  50.9440000  74.1790000  92.5970000  51.7580000  74.8590000  90.3790000
  50.9690000  73.0690000  94.9800000  54.1590000  71.1860000  95.5880000
  52.3990000  71.7110000  96.3810000  55.5800000  74.3060000  87.5180000
  56.5900000  73.1790000  88.8640000  53.3770000  75.0580000  88.2820000
  51.1810000  72.4250000  96.1520000  50.1550000  73.5380000  94.8430000
  52.5370000  71.2660000  97.2090000  56.5650000  74.2890000  86.4810000
  54.3500000  75.0310000  87.2920000  52.5760000  75.5450000  88.1300000
  50.5140000  72.4480000  96.8280000  56.3530000  74.9330000  85.3090000
  57.3790000  73.8210000  86.6170000  54.1780000  75.6900000  86.0380000
  55.1360000  75.6470000  85.0800000  57.0200000  74.9100000  84.6320000
  53.3750000  76.1720000  85.8720000  54.9970000  76.0930000  84.2520000
  52.7800000  72.2290000  47.3360000  52.6100000  72.9060000  46.1110000
  51.8040000  72.2340000  48.3390000  54.0240000  71.5000000  47.5670000
  51.8080000  73.3930000  45.9590000  53.5820000  72.8790000  45.1220000
  50.9910000  72.7070000  48.2080000  51.9750000  71.5540000  49.5520000
  55.0080000  71.4950000  46.5480000  54.1950000  70.8200000  48.7810000
  54.8130000  72.1540000  45.3480000  53.4100000  73.5390000  43.8680000
  50.9900000  71.5590000  50.5710000  53.2190000  70.8250000  49.7840000
  55.8230000  71.0270000  46.6930000  55.0080000  70.3470000  48.9110000
  55.7970000  72.1380000  44.3110000  52.6080000  74.0200000  43.7020000
  54.3680000  73.4960000  42.9090000  51.1860000  70.9000000  51.7720000
  50.1760000  72.0270000  50.4270000  53.3890000  70.1480000  51.0090000
  55.5860000  72.7810000  43.1380000  56.6120000  71.6690000  44.4470000
  54.2300000  73.9410000  42.0810000  50.2020000  70.9170000  52.8090000
  52.4170000  70.1760000  51.9980000  54.1900000  69.6610000  51.1600000
  56.2520000  72.7580000  42.4620000  50.4130000  70.2730000  53.9820000
  49.3870000  71.3860000  52.6730000  52.5890000  69.5160000  53.2520000
  51.6310000  69.5590000  54.2110000  49.7460000  70.2960000  54.6580000
  53.3910000  69.0350000  53.4180000  51.7690000  69.1140000  55.0390000
  54.2840000  82.0600000  89.5060000  54.1130000  82.7360000  88.2820000
  53.3080000  82.0650000  90.5100000  55.5280000  81.3310000  89.7380000
  53.3120000  83.2240000  88.1300000  55.0860000  82.7090000  87.2920000
  52.4940000  82.5370000  90.3790000  53.4790000  81.3850000  91.7230000
  56.5120000  81.3260000  88.7190000  55.6980000  80.6500000  90.9510000
  56.3170000  81.9850000  87.5180000  54.9140000  83.3690000  86.0380000
  52.4940000  81.3900000  92.7420000  54.7230000  80.6560000  91.9550000
  57.3260000  80.8580000  88.8640000  56.5120000  80.1780000  91.0820000
  57.3010000  81.9680000  86.4810000  54.1110000  83.8500000  85.8720000
  55.8720000  83.3260000  85.0800000  52.6900000  80.7300000  93.9420000
  51.6800000  81.8570000  92.5970000  54.8930000  79.9790000  93.1790000
  57.0900000  82.6120000  85.3090000  58.1150000  81.4990000  86.6170000
  55.7330000  83.7710000  84.2520000  51.7060000  80.7470000  94.9800000
  53.9200000  80.0060000  94.1690000  55.6940000  79.4910000  93.3310000
  57.7560000  82.5880000  84.6320000  51.9170000  80.1040000  96.1520000
  50.8910000  81.2160000  94.8430000  54.0920000  79.3460000  95.4230000
  53.1350000  79.3890000  96.3810000  51.2500000  80.1270000  96.8280000
  54.8950000  78.8650000  95.5880000  53.2730000  78.9440000  97.2090000
  53.7820000  78.7830000  75.4490000  53.6120000  79.4600000  74.2250000
  52.8070000  78.7880000  76.4530000  55.0270000  78.0540000  75.6810000
  52.8110000  79.9470000  74.0730000  54.5850000  79.4320000  73.2350000
  51.9930000  79.2600000  76.3220000  52.9770000  78.1080000  77.6660000
  56.0110000  78.0490000  74.6620000  55.1970000  77.3740000  76.8940000
  55.8150000  78.7080000  73.4620000  54.4130000  80.0920000  71.9810000
  51.9930000  78.1130000  78.6850000  54.2210000  77.3790000  77.8980000
  56.8250000  77.5810000  74.8070000  56.0110000  76.9010000  77.0250000
  56.8000000  78.6910000  72.4240000  53.6100000  80.5730000  71.8150000
  55.3700000  80.0490000  71.0230000  52.1890000  77.4540000  79.8860000
  51.1790000  78.5800000  78.5400000  54.3920000  76.7020000  79.1220000
  56.5880000  79.3350000  71.2520000  57.6140000  78.2220000  72.5610000
  55.2320000  80.4940000  70.1950000  51.2040000  77.4700000  80.9230000
  53.4190000  76.7290000  80.1120000  55.1930000  76.2150000  79.2740000
  57.2550000  79.3120000  70.5760000  51.4160000  76.8270000  82.0950000
  50.3900000  77.9390000  80.7870000  53.5910000  76.0690000  81.3660000
  52.6330000  76.1120000  82.3240000  50.7490000  76.8500000  82.7710000
  54.3940000  75.5880000  81.5320000  52.7720000  75.6670000  83.1520000
  53.9550000  78.5040000  49.7840000  54.1250000  77.8270000  51.0090000
  54.9310000  78.4990000  48.7810000  52.7110000  79.2330000  49.5520000
  54.9270000  77.3390000  51.1600000  53.1530000  77.8540000  51.9980000
  55.7440000  78.0260000  48.9110000  54.7600000  79.1790000  47.5670000
  51.7270000  79.2380000  50.5710000  52.5400000  79.9130000  48.3390000
  51.9220000  78.5780000  51.7720000  53.3250000  77.1940000  53.2520000
  55.7450000  79.1740000  46.5480000  53.5160000  79.9080000  47.3360000
  50.9120000  79.7050000  50.4270000  51.7270000  80.3850000  48.2080000
  50.9380000  78.5950000  52.8090000  54.1270000  76.7130000  53.4180000
  52.3670000  77.2370000  54.2110000  55.5490000  79.8330000  45.3480000
  56.5590000  78.7060000  46.6930000  53.3460000  80.5850000  46.1110000
  51.1490000  77.9520000  53.9820000  50.1230000  79.0640000  52.6730000
  52.5050000  76.7920000  55.0390000  56.5330000  79.8160000  44.3110000
  54.3180000  80.5570000  45.1220000  52.5440000  81.0720000  45.9590000
  50.4830000  77.9750000  54.6580000  56.3220000  80.4600000  43.1380000
  57.3480000  79.3470000  44.4470000  54.1460000  81.2170000  43.8680000
  55.1040000  81.1740000  42.9090000  56.9880000  80.4360000  42.4620000
  53.3440000  81.6980000  43.7020000  54.9660000  81.6190000  42.0810000
  54.4560000  81.7810000  63.8410000  54.6270000  81.1040000  65.0650000
  55.4320000  81.7750000  62.8370000  53.2120000  82.5100000  63.6090000
  55.4280000  80.6160000  65.2170000  53.6540000  81.1310000  66.0550000
  56.2460000  81.3030000  62.9680000  55.2610000  82.4550000  61.6240000
  52.2280000  82.5150000  64.6280000  53.0420000  83.1900000  62.3960000
  52.4230000  81.8550000  65.8290000  53.8260000  80.4710000  67.3090000
  56.2460000  82.4510000  60.6050000  54.0170000  83.1850000  61.3920000
  51.4130000  82.9820000  64.4830000  52.2280000  83.6620000  62.2650000
  51.4390000  81.8720000  66.8660000  54.6290000  79.9900000  67.4750000
  52.8680000  80.5140000  68.2680000  56.0500000  83.1100000  59.4050000
  57.0600000  81.9830000  60.7500000  53.8470000  83.8610000  60.1680000
  51.6500000  81.2290000  68.0380000  50.6240000  82.3410000  66.7300000
  53.0070000  80.0690000  69.0960000  57.0340000  83.0930000  58.3670000
  54.8190000  83.8340000  59.1780000  53.0460000  84.3490000  60.0160000
  50.9840000  81.2520000  68.7150000  56.8230000  83.7370000  57.1950000
  57.8490000  82.6240000  58.5040000  54.6480000  84.4940000  57.9250000
  55.6050000  84.4510000  56.9660000  57.4900000  83.7130000  56.5190000
  53.8450000  84.9750000  57.7590000  55.4670000  84.8960000  56.1380000
  54.5190000  86.4610000  75.4490000  54.3480000  87.1380000  74.2250000
  53.5430000  86.4670000  76.4530000  55.7630000  85.7320000  75.6810000
  53.5470000  87.6260000  74.0730000  55.3210000  87.1110000  73.2350000
  52.7290000  86.9390000  76.3220000  53.7130000  85.7860000  77.6660000
  56.7470000  85.7270000  74.6620000  55.9330000  85.0520000  76.8940000
  56.5510000  86.3870000  73.4620000  55.1490000  87.7710000  71.9810000
  52.7290000  85.7910000  78.6850000  54.9570000  85.0570000  77.8980000
  57.5610000  85.2600000  74.8070000  56.7470000  84.5800000  77.0250000
  57.5360000  86.3700000  72.4240000  54.3460000  88.2520000  71.8150000
  56.1070000  87.7280000  71.0230000  52.9250000  85.1320000  79.8860000
  51.9150000  86.2590000  78.5400000  55.1280000  84.3810000  79.1220000
  57.3240000  87.0130000  71.2520000  58.3500000  85.9010000  72.5610000
  55.9680000  88.1730000  70.1950000  51.9400000  85.1490000  80.9230000
  54.1550000  84.4080000  80.1120000  55.9290000  83.8930000  79.2740000
  57.9910000  86.9900000  70.5760000  52.1520000  84.5050000  82.0950000
  51.1260000  85.6180000  80.7870000  54.3270000  83.7480000  81.3660000
  53.3690000  83.7910000  82.3240000  51.4850000  84.5290000  82.7710000
  55.1300000  83.2670000  81.5320000  53.5080000  83.3460000  83.1520000
  55.0200000  89.7380000  89.5060000  54.8490000  90.4150000  88.2820000
  54.0440000  89.7430000  90.5100000  56.2640000  89.0090000  89.7380000
  54.0480000  90.9030000  88.1300000  55.8220000  90.3880000  87.2920000
  53.2300000  90.2160000  90.3790000  54.2150000  89.0630000  91.7230000
  57.2480000  89.0040000  88.7190000  56.4350000  88.3290000  90.9510000
  57.0530000  89.6630000  87.5180000  55.6500000  91.0480000  86.0380000
  53.2300000  89.0680000  92.7420000  55.4590000  88.3340000  91.9550000
  58.0630000  88.5370000  88.8640000  57.2480000  87.8570000  91.0820000
  58.0370000  89.6470000  86.4810000  54.8480000  91.5290000  85.8720000
  56.6080000  91.0050000  85.0800000  53.4260000  88.4090000  93.9420000
  52.4160000  89.5360000  92.5970000  55.6290000  87.6570000  93.1790000
  57.8260000  90.2900000  85.3090000  58.8520000  89.1780000  86.6170000
  56.4690000  91.4500000  84.2520000  52.4420000  88.4260000  94.9800000
  54.6570000  87.6850000  94.1690000  56.4300000  87.1700000  93.3310000
  58.4920000  90.2670000  84.6320000  52.6530000  87.7820000  96.1520000
  51.6270000  88.8950000  94.8430000  54.8280000  87.0250000  95.4230000
  53.8710000  87.0680000  96.3810000  51.9860000  87.8060000  96.8280000
  55.6310000  86.5440000  95.5880000  54.0090000  86.6230000  97.2090000
  54.7530000  90.8630000  61.3920000  54.5830000  91.5400000  60.1680000
  53.7780000  90.8680000  62.3960000  55.9980000  90.1340000  61.6240000
  53.7820000  92.0270000  60.0160000  55.5560000  91.5130000  59.1780000
  52.9640000  91.3410000  62.2650000  53.9480000  90.1880000  63.6090000
  56.9820000  90.1290000  60.6050000  56.1680000  89.4540000  62.8370000
  56.7860000  90.7880000  59.4050000  55.3840000  92.1730000  57.9250000
  52.9640000  90.1930000  64.6280000  55.1920000  89.4590000  63.8410000
  57.7960000  89.6620000  60.7500000  56.9820000  88.9810000  62.9680000
  57.7700000  90.7720000  58.3670000  54.5810000  92.6540000  57.7590000
  56.3410000  92.1300000  56.9660000  53.1600000  89.5340000  65.8290000
  52.1500000  90.6610000  64.4830000  55.3630000  88.7820000  65.0650000
  57.5590000  91.4150000  57.1950000  58.5850000  90.3030000  58.5040000
  56.2030000  92.5750000  56.1380000  52.1750000  89.5510000  66.8660000
  54.3900000  88.8100000  66.0550000  56.1640000  88.2950000  65.2170000
  58.2260000  91.3920000  56.5190000  52.3860000  88.9070000  68.0380000
  51.3610000  90.0200000  66.7300000  54.5620000  88.1500000  67.3090000
  53.6040000  88.1930000  68.2680000  51.7200000  88.9300000  68.7150000
  55.3650000  87.6690000  67.4750000  53.7430000  87.7480000  69.0960000
  55.2550000  94.1400000  75.4490000  55.0840000  94.8170000  74.2250000
  54.2790000  94.1450000  76.4530000  56.4990000  93.4110000  75.6810000
  54.2830000  95.3040000  74.0730000  56.0570000  94.7900000  73.2350000
  53.4650000  94.6180000  76.3220000  54.4500000  93.4650000  77.6660000
  57.4830000  93.4060000  74.6620000  56.6690000  92.7310000  76.8940000
  57.2880000  94.0650000  73.4620000  55.8850000  95.4490000  71.9810000
  53.4650000  93.4700000  78.6850000  55.6940000  92.7360000  77.8980000
  58.2970000  92.9380000  74.8070000  57.4830000  92.2580000  77.0250000
  58.2720000  94.0480000  72.4240000  55.0820000  95.9310000  71.8150000
  56.8430000  95.4060000  71.0230000  53.6610000  92.8110000  79.8860000
  52.6510000  93.9380000  78.5400000  55.8640000  92.0590000  79.1220000
  58.0610000  94.6920000  71.2520000  59.0860000  93.5800000  72.5610000
  56.7040000  95.8510000  70.1950000  52.6770000  92.8280000  80.9230000
  54.8910000  92.0860000  80.1120000  56.6650000  91.5720000  79.2740000
  58.7270000  94.6690000  70.5760000  52.8880000  92.1840000  82.0950000
  51.8620000  93.2960000  80.7870000  55.0630000  91.4270000  81.3660000
  54.1060000  91.4700000  82.3240000  52.2210000  92.2070000  82.7710000
  55.8660000  90.9450000  81.5320000  54.2440000  91.0250000  83.1520000
  53.9860000  88.7110000  19.2220000  53.8150000  89.3880000  17.9980000
  53.0100000  88.7160000  20.2260000  55.2300000  87.9820000  19.4540000
  53.0140000  89.8760000  17.8460000  54.7880000  89.3610000  17.0080000
  52.1960000  89.1890000  20.0950000  53.1810000  88.0360000  21.4390000
  56.2140000  87.9770000  18.4350000  55.4000000  87.3020000  20.6670000
  56.0190000  88.6370000  17.2340000  54.6160000  90.0210000  15.7540000
  52.1960000  88.0410000  22.4580000  54.4250000  87.3070000  21.6710000
  57.0290000  87.5100000  18.5800000  56.2140000  86.8300000  20.7980000
  57.0030000  88.6200000  16.1970000  53.8130000  90.5020000  15.5880000
  55.5740000  89.9780000  14.7950000  52.3920000  87.3820000  23.6580000
  51.3820000  88.5090000  22.3130000  54.5950000  86.6300000  22.8950000
  56.7920000  89.2630000  15.0250000  57.8180000  88.1510000  16.3330000
  55.4350000  90.4230000  13.9670000  51.4080000  87.3990000  24.6960000
  53.6230000  86.6580000  23.8850000  55.3960000  86.1430000  23.0470000
  57.4580000  89.2400000  14.3480000  51.6190000  86.7550000  25.8680000
  50.5930000  87.8680000  24.5590000  53.7940000  85.9980000  25.1380000
  52.8370000  86.0410000  26.0970000  50.9520000  86.7790000  26.5440000
  54.5970000  85.5170000  25.3040000  52.9750000  85.5960000  26.9250000
  55.9910000 101.8190000  75.4490000  55.8200000 102.4950000  74.2250000
  55.0150000 101.8240000  76.4530000  57.2350000 101.0900000  75.6810000
  55.0190000 102.9830000  74.0730000  56.7930000 102.4680000  73.2350000
  54.2010000 102.2960000  76.3220000  55.1860000 101.1440000  77.6660000
  58.2190000 101.0850000  74.6620000  57.4050000 100.4090000  76.8940000
  58.0240000 101.7440000  73.4620000  56.6210000 103.1280000  71.9810000
  54.2010000 101.1490000  78.6850000  56.4300000 100.4150000  77.8980000
  59.0340000 100.6170000  74.8070000  58.2190000  99.9370000  77.0250000
  59.0080000 101.7270000  72.4240000  55.8190000 103.6090000  71.8150000
  57.5790000 103.0850000  71.0230000  54.3970000 100.4890000  79.8860000
  53.3870000 101.6160000  78.5400000  56.6000000  99.7380000  79.1220000
  58.7970000 102.3710000  71.2520000  59.8230000 101.2580000  72.5610000
  57.4400000 103.5300000  70.1950000  53.4130000 100.5060000  80.9230000
  55.6280000  99.7650000  80.1120000  57.4010000  99.2500000  79.2740000
  59.4630000 102.3470000  70.5760000  53.6240000  99.8630000  82.0950000
  52.5980000 100.9750000  80.7870000  55.7990000  99.1050000  81.3660000
  54.8420000  99.1480000  82.3240000  52.9570000  99.8860000  82.7710000
  56.6020000  98.6240000  81.5320000  54.9800000  98.7030000  83.1520000
  54.4870000  91.9880000  33.2790000  54.3170000  92.6650000  32.0540000
  53.5110000  91.9930000  34.2820000  55.7310000  91.2590000  33.5110000
  53.5150000  93.1520000  31.9030000  55.2890000  92.6380000  31.0650000
  52.6980000  92.4660000  34.1520000  53.6820000  91.3130000  35.4960000
  56.7150000  91.2540000  32.4920000  55.9020000  90.5790000  34.7240000
  56.5200000  91.9130000  31.2910000  55.1170000  93.2980000  29.8110000
  52.6970000  91.3180000  36.5150000  54.9260000  90.5840000  35.7270000
  57.5300000  90.7860000  32.6360000  56.7150000  90.1060000  34.8550000
  57.5040000  91.8960000  30.2540000  54.3150000  93.7790000  29.6450000
  56.0750000  93.2540000  28.8520000  52.8930000  90.6590000  37.7150000
  51.8830000  91.7860000  36.3700000  55.0960000  89.9070000  36.9520000
  57.2930000  92.5400000  29.0810000  58.3190000  91.4280000  30.3900000
  55.9370000  93.7000000  28.0240000  51.9090000  90.6760000  38.7520000
  54.1240000  89.9350000  37.9410000  55.8980000  89.4200000  37.1040000
  57.9590000  92.5170000  28.4050000  52.1200000  90.0320000  39.9250000
  51.0940000  91.1450000  38.6160000  54.2960000  89.2750000  39.1950000
  53.3380000  89.3180000  40.1540000  51.4540000  90.0550000  40.6010000
  55.0980000  88.7940000  39.3610000  53.4760000  88.8730000  40.9820000
  54.9880000  95.2650000  47.3360000  54.8180000  95.9420000  46.1110000
  54.0130000  95.2700000  48.3390000  56.2320000  94.5360000  47.5670000
  54.0170000  96.4290000  45.9590000  55.7900000  95.9140000  45.1220000
  53.1990000  95.7430000  48.2080000  54.1830000  94.5900000  49.5520000
  57.2170000  94.5310000  46.5480000  56.4030000  93.8560000  48.7810000
  57.0210000  95.1900000  45.3480000  55.6190000  96.5740000  43.8680000
  53.1990000  94.5950000  50.5710000  55.4270000  93.8610000  49.7840000
  58.0310000  94.0630000  46.6930000  57.2170000  93.3830000  48.9110000
  58.0050000  95.1730000  44.3110000  54.8160000  97.0560000  43.7020000
  56.5760000  96.5310000  42.9090000  53.3940000  93.9360000  51.7720000
  52.3840000  95.0630000  50.4270000  55.5980000  93.1840000  51.0090000
  57.7940000  95.8170000  43.1380000  58.8200000  94.7040000  44.4470000
  56.4380000  96.9760000  42.0810000  52.4100000  93.9530000  52.8090000
  54.6250000  93.2110000  51.9980000  56.3990000  92.6970000  51.1600000
  58.4610000  95.7940000  42.4620000  52.6210000  93.3090000  53.9820000
  51.5950000  94.4210000  52.6730000  54.7970000  92.5520000  53.2520000
  53.8390000  92.5950000  54.2110000  51.9550000  93.3320000  54.6580000
  55.5990000  92.0700000  53.4180000  53.9780000  92.1490000  55.0390000
  55.4900000  98.5420000  61.3920000  55.3190000  99.2190000  60.1680000
  54.5140000  98.5470000  62.3960000  56.7340000  97.8130000  61.6240000
  54.5180000  99.7060000  60.0160000  56.2920000  99.1910000  59.1780000
  53.7000000  99.0190000  62.2650000  54.6840000  97.8670000  63.6090000
  57.7180000  97.8080000  60.6050000  56.9040000  97.1330000  62.8370000
  57.5220000  98.4670000  59.4050000  56.1200000  99.8510000  57.9250000
  53.7000000  97.8720000  64.6280000  55.9280000  97.1380000  63.8410000
  58.5320000  97.3400000  60.7500000  57.7180000  96.6600000  62.9680000
  58.5070000  98.4500000  58.3670000  55.3170000 100.3320000  57.7590000
  57.0780000  99.8080000  56.9660000  53.8960000  97.2130000  65.8290000
  52.8860000  98.3390000  64.4830000  56.0990000  96.4610000  65.0650000
  58.2950000  99.0940000  57.1950000  59.3210000  97.9810000  58.5040000
  56.9390000 100.2530000  56.1380000  52.9110000  97.2290000  66.8660000
  55.1260000  96.4880000  66.0550000  56.9000000  95.9730000  65.2170000
  58.9620000  99.0700000  56.5190000  53.1230000  96.5860000  68.0380000
  52.0970000  97.6980000  66.7300000  55.2980000  95.8280000  67.3090000
  54.3400000  95.8710000  68.2680000  52.4560000  96.6090000  68.7150000
  56.1010000  95.3470000  67.4750000  54.4790000  95.4260000  69.0960000
  52.9840000  66.4230000  63.8410000  53.1540000  65.7470000  65.0650000
  53.9600000  66.4180000  62.8370000  51.7400000  67.1520000  63.6090000
  53.9560000  65.2590000  65.2170000  52.1820000  65.7740000  66.0550000
  54.7730000  65.9460000  62.9680000  53.7890000  67.0980000  61.6240000
  50.7560000  67.1570000  64.6280000  51.5690000  67.8330000  62.3960000
  50.9510000  66.4980000  65.8290000  52.3540000  65.1140000  67.3090000
  54.7740000  67.0930000  60.6050000  52.5450000  67.8270000  61.3920000
  49.9410000  67.6250000  64.4830000  50.7560000  68.3050000  62.2650000
  49.9670000  66.5150000  66.8660000  53.1560000  64.6330000  67.4750000
  51.3960000  65.1570000  68.2680000  54.5780000  67.7530000  59.4050000
  55.5880000  66.6260000  60.7500000  52.3750000  68.5040000  60.1680000
  50.1780000  65.8710000  68.0380000  49.1520000  66.9840000  66.7300000
  51.5340000  64.7120000  69.0960000  55.5620000  67.7360000  58.3670000
  53.3470000  68.4770000  59.1780000  51.5730000  68.9920000  60.0160000
  49.5120000  65.8950000  68.7150000  55.3510000  68.3790000  57.1950000
  56.3770000  67.2670000  58.5040000  53.1750000  69.1370000  57.9250000
  54.1330000  69.0940000  56.9660000  56.0170000  68.3560000  56.5190000
  52.3730000  69.6180000  57.7590000  53.9950000  69.5390000  56.1380000
  53.7200000  74.1020000  63.8410000  53.8910000  73.4250000  65.0650000
  54.6960000  74.0970000  62.8370000  52.4760000  74.8310000  63.6090000
  54.6920000  72.9380000  65.2170000  52.9180000  73.4520000  66.0550000
  55.5100000  73.6240000  62.9680000  54.5250000  74.7770000  61.6240000
  51.4920000  74.8360000  64.6280000  52.3050000  75.5110000  62.3960000
  51.6870000  74.1770000  65.8290000  53.0900000  72.7930000  67.3090000
  55.5100000  74.7720000  60.6050000  53.2810000  75.5060000  61.3920000
  50.6770000  75.3040000  64.4830000  51.4920000  75.9840000  62.2650000
  50.7030000  74.1940000  66.8660000  53.8920000  72.3110000  67.4750000
  52.1320000  72.8360000  68.2680000  55.3140000  75.4310000  59.4050000
  56.3240000  74.3040000  60.7500000  53.1110000  76.1830000  60.1680000
  50.9140000  73.5500000  68.0380000  49.8880000  74.6620000  66.7300000
  52.2710000  72.3910000  69.0960000  56.2980000  75.4140000  58.3670000
  54.0830000  76.1560000  59.1780000  52.3100000  76.6700000  60.0160000
  50.2480000  73.5730000  68.7150000  56.0870000  76.0580000  57.1950000
  57.1130000  74.9460000  58.5040000  53.9120000  76.8150000  57.9250000
  54.8690000  76.7720000  56.9660000  56.7540000  76.0350000  56.5190000
  53.1090000  77.2970000  57.7590000  54.7310000  77.2170000  56.1380000
  53.4850000  85.4340000   5.1650000  53.3140000  86.1110000   3.9410000
  52.5090000  85.4400000   6.1690000  54.7290000  84.7050000   5.3970000
  52.5130000  86.5990000   3.7890000  54.2870000  86.0840000   2.9510000
  51.6950000  85.9120000   6.0380000  52.6790000  84.7600000   7.3820000
  55.7130000  84.7000000   4.3780000  54.8990000  84.0250000   6.6100000
  55.5170000  85.3600000   3.1770000  54.1150000  86.7440000   1.6970000
  51.6950000  84.7640000   8.4010000  53.9230000  84.0300000   7.6140000
  56.5270000  84.2330000   4.5230000  55.7130000  83.5530000   6.7410000
  56.5020000  85.3430000   2.1400000  53.3120000  87.2250000   1.5310000
  55.0730000  86.7010000   0.7390000  51.8910000  84.1050000   9.6010000
  50.8810000  85.2320000   8.2560000  54.0940000  83.3540000   8.8380000
  56.2900000  85.9860000   0.9680000  57.3160000  84.8740000   2.2760000
  54.9340000  87.1460000  -0.0890000  50.9060000  84.1220000  10.6390000
  53.1210000  83.3810000   9.8280000  54.8950000  82.8660000   8.9900000
  56.9570000  85.9630000   0.2920000  51.1180000  83.4780000  11.8110000
  50.0920000  84.5910000  10.5020000  53.2930000  82.7210000  11.0820000
  52.3350000  82.7640000  12.0400000  50.4510000  83.5020000  12.4870000
  54.0960000  82.2400000  11.2470000  52.4740000  82.3190000  12.8680000
  48.8980000   4.1930000   4.9780000  48.7410000   4.3120000   3.5870000
  47.9170000   3.6360000   5.8090000  50.1290000   4.6810000   5.5830000
  47.9400000   3.9950000   3.1860000  49.7170000   4.8780000   2.7770000
  47.1030000   3.3180000   5.4360000  48.0960000   3.5340000   7.1960000
  51.1210000   5.2520000   4.7500000  50.3080000   4.5790000   6.9700000
  50.9420000   5.3530000   3.3760000  49.5540000   5.0030000   1.3540000
  47.1040000   2.9620000   8.0280000  49.3270000   4.0220000   7.8010000
  51.9260000   5.5730000   5.1400000  51.1220000   4.8960000   7.3430000
  51.9380000   5.9390000   2.5130000  48.7540000   4.6960000   0.9420000
  50.5320000   5.5540000   0.5920000  47.2830000   2.8610000   9.4030000
  46.2990000   2.6410000   7.6390000  49.4830000   3.9020000   9.1920000
  51.7400000   6.0370000   1.1770000  52.7480000   6.2630000   2.8880000
  50.4110000   5.6190000  -0.3480000  46.2870000   2.2750000  10.2660000
  48.5070000   3.3370000  10.0020000  50.2850000   4.2200000   9.5930000
  52.4080000   6.4280000   0.6280000  46.4850000   2.1780000  11.6020000
  45.4770000   1.9510000   9.8910000  48.6710000   3.2120000  11.4250000
  47.6920000   2.6600000  12.1860000  45.8160000   1.7860000  12.1510000
  49.4710000   3.5180000  11.8360000  47.8130000   2.5960000  13.1270000
  49.6340000  11.8710000   4.9780000  49.4780000  11.9910000   3.5870000
  48.6530000  11.3140000   5.8090000  50.8650000  12.3590000   5.5830000
  48.6760000  11.6730000   3.1860000  50.4530000  12.5560000   2.7770000
  47.8390000  10.9970000   5.4360000  48.8320000  11.2120000   7.1960000
  51.8570000  12.9310000   4.7500000  51.0440000  12.2570000   6.9700000
  51.6780000  13.0320000   3.3760000  50.2900000  12.6810000   1.3540000
  47.8400000  10.6410000   8.0280000  50.0630000  11.7000000   7.8010000
  52.6620000  13.2520000   5.1400000  51.8580000  12.5750000   7.3430000
  52.6740000  13.6180000   2.5130000  49.4900000  12.3750000   0.9420000
  51.2690000  13.2320000   0.5920000  48.0190000  10.5390000   9.4030000
  47.0350000  10.3190000   7.6390000  50.2190000  11.5810000   9.1920000
  52.4760000  13.7150000   1.1770000  53.4840000  13.9420000   2.8880000
  51.1470000  13.2970000  -0.3480000  47.0230000   9.9540000  10.2660000
  49.2440000  11.0150000  10.0020000  51.0210000  11.8980000   9.5930000
  53.1440000  14.1070000   0.6280000  47.2210000   9.8560000  11.6020000
  46.2130000   9.6300000   9.8910000  49.4070000  10.8900000  11.4250000
  48.4280000  10.3390000  12.1860000  46.5520000   9.4650000  12.1510000
  50.2070000  11.1970000  11.8360000  48.5500000  10.2740000  13.1270000
  50.3700000  19.5500000   4.9780000  50.2140000  19.6690000   3.5870000
  49.3890000  18.9930000   5.8090000  51.6010000  20.0380000   5.5830000
  49.4120000  19.3520000   3.1860000  51.1900000  20.2350000   2.7770000
  48.5750000  18.6760000   5.4360000  49.5680000  18.8910000   7.1960000
  52.5930000  20.6100000   4.7500000  51.7800000  19.9360000   6.9700000
  52.4140000  20.7110000   3.3760000  51.0260000  20.3600000   1.3540000
  48.5760000  18.3190000   8.0280000  50.7990000  19.3790000   7.8010000
  53.3980000  20.9310000   5.1400000  52.5940000  20.2530000   7.3430000
  53.4100000  21.2960000   2.5130000  50.2260000  20.0540000   0.9420000
  52.0050000  20.9110000   0.5920000  48.7550000  18.2180000   9.4030000
  47.7710000  17.9980000   7.6390000  50.9560000  19.2590000   9.1920000
  53.2120000  21.3940000   1.1770000  54.2200000  21.6200000   2.8880000
  51.8840000  20.9760000  -0.3480000  47.7590000  17.6320000  10.2660000
  49.9800000  18.6940000  10.0020000  51.7570000  19.5770000   9.5930000
  53.8810000  21.7850000   0.6280000  47.9570000  17.5350000  11.6020000
  46.9490000  17.3080000   9.8910000  50.1430000  18.5690000  11.4250000
  49.1640000  18.0180000  12.1860000  47.2890000  17.1430000  12.1510000
  50.9430000  18.8750000  11.8360000  49.2860000  17.9530000  13.1270000
  51.1060000  27.2290000   4.9780000  50.9500000  27.3480000   3.5870000
  50.1250000  26.6710000   5.8090000  52.3370000  27.7170000   5.5830000
  50.1480000  27.0300000   3.1860000  51.9260000  27.9130000   2.7770000
  49.3120000  26.3540000   5.4360000  50.3040000  26.5690000   7.1960000
  53.3290000  28.2880000   4.7500000  52.5160000  27.6150000   6.9700000
  53.1500000  28.3890000   3.3760000  51.7620000  28.0390000   1.3540000
  49.3130000  25.9980000   8.0280000  51.5350000  27.0570000   7.8010000
  54.1340000  28.6090000   5.1400000  53.3300000  27.9320000   7.3430000
  54.1460000  28.9750000   2.5130000  50.9620000  27.7320000   0.9420000
  52.7410000  28.5900000   0.5920000  49.4910000  25.8970000   9.4030000
  48.5070000  25.6770000   7.6390000  51.6920000  26.9380000   9.1920000
  53.9480000  29.0720000   1.1770000  54.9560000  29.2990000   2.8880000
  52.6200000  28.6550000  -0.3480000  48.4950000  25.3110000  10.2660000
  50.7160000  26.3730000  10.0020000  52.4930000  27.2550000   9.5930000
  54.6170000  29.4640000   0.6280000  48.6930000  25.2140000  11.6020000
  47.6850000  24.9870000   9.8910000  50.8800000  26.2470000  11.4250000
  49.9010000  25.6960000  12.1860000  48.0250000  24.8220000  12.1510000
  51.6790000  26.5540000  11.8360000  50.0220000  25.6310000  13.1270000
  51.8420000  34.9070000   4.9780000  51.6860000  35.0270000   3.5870000
  50.8610000  34.3500000   5.8090000  53.0730000  35.3950000   5.5830000
  50.8850000  34.7090000   3.1860000  52.6620000  35.5920000   2.7770000
  50.0480000  34.0330000   5.4360000  51.0410000  34.2480000   7.1960000
  54.0650000  35.9670000   4.7500000  53.2530000  35.2930000   6.9700000
  53.8860000  36.0680000   3.3760000  52.4980000  35.7170000   1.3540000
  50.0490000  33.6760000   8.0280000  52.2710000  34.7360000   7.8010000
  54.8700000  36.2880000   5.1400000  54.0660000  35.6100000   7.3430000
  54.8820000  36.6540000   2.5130000  51.6980000  35.4110000   0.9420000
  53.4770000  36.2680000   0.5920000  50.2270000  33.5750000   9.4030000
  49.2430000  33.3550000   7.6390000  52.4280000  34.6160000   9.1920000
  54.6840000  36.7510000   1.1770000  55.6920000  36.9780000   2.8880000
  53.3560000  36.3330000  -0.3480000  49.2310000  32.9890000  10.2660000
  51.4520000  34.0510000  10.0020000  53.2290000  34.9340000   9.5930000
  55.3530000  37.1430000   0.6280000  49.4290000  32.8920000  11.6020000
  48.4210000  32.6650000   9.8910000  51.6160000  33.9260000  11.4250000
  50.6370000  33.3750000  12.1860000  48.7610000  32.5010000  12.1510000
  52.4160000  34.2320000  11.8360000  50.7580000  33.3100000  13.1270000
  52.5780000  42.5860000   4.9780000  52.4220000  42.7050000   3.5870000
  51.5970000  42.0280000   5.8090000  53.8090000  43.0740000   5.5830000
  51.6210000  42.3880000   3.1860000  53.3980000  43.2710000   2.7770000
  50.7840000  41.7110000   5.4360000  51.7770000  41.9270000   7.1960000
  54.8010000  43.6450000   4.7500000  53.9890000  42.9720000   6.9700000
  54.6230000  43.7460000   3.3760000  53.2340000  43.3960000   1.3540000
  50.7850000  41.3550000   8.0280000  53.0070000  42.4150000   7.8010000
  55.6060000  43.9660000   5.1400000  54.8020000  43.2890000   7.3430000
  55.6190000  44.3320000   2.5130000  52.4340000  43.0890000   0.9420000
  54.2130000  43.9470000   0.5920000  50.9630000  41.2540000   9.4030000
  49.9790000  41.0340000   7.6390000  53.1640000  42.2950000   9.1920000
  55.4210000  44.4290000   1.1770000  56.4280000  44.6560000   2.8880000
  54.0920000  44.0120000  -0.3480000  49.9670000  40.6680000  10.2660000
  52.1880000  41.7300000  10.0020000  53.9650000  42.6130000   9.5930000
  56.0890000  44.8210000   0.6280000  50.1650000  40.5710000  11.6020000
  49.1580000  40.3440000   9.8910000  52.3520000  41.6050000  11.4250000
  51.3730000  41.0530000  12.1860000  49.4970000  40.1790000  12.1510000
  53.1520000  41.9110000  11.8360000  51.4940000  40.9890000  13.1270000
  53.3150000  50.2640000   4.9780000  53.1580000  50.3840000   3.5870000
  52.3330000  49.7070000   5.8090000  54.5450000  50.7520000   5.5830000
  52.3570000  50.0660000   3.1860000  54.1340000  50.9490000   2.7770000
  51.5200000  49.3900000   5.4360000  52.5130000  49.6050000   7.1960000
  55.5370000  51.3240000   4.7500000  54.7250000  50.6500000   6.9700000
  55.3590000  51.4250000   3.3760000  53.9700000  51.0740000   1.3540000
  51.5210000  49.0340000   8.0280000  53.7440000  50.0930000   7.8010000
  56.3430000  51.6450000   5.1400000  55.5380000  50.9680000   7.3430000
  56.3550000  52.0110000   2.5130000  53.1700000  50.7680000   0.9420000
  54.9490000  51.6250000   0.5920000  51.7000000  48.9320000   9.4030000
  50.7160000  48.7120000   7.6390000  53.9000000  49.9740000   9.1920000
  56.1570000  52.1080000   1.1770000  57.1640000  52.3350000   2.8880000
  54.8280000  51.6900000  -0.3480000  50.7040000  48.3470000  10.2660000
  52.9240000  49.4080000  10.0020000  54.7010000  50.2910000   9.5930000
  56.8250000  52.5000000   0.6280000  50.9020000  48.2490000  11.6020000
  49.8940000  48.0230000   9.8910000  53.0880000  49.2830000  11.4250000
  52.1090000  48.7320000  12.1860000  50.2330000  47.8580000  12.1510000
  53.8880000  49.5900000  11.8360000  52.2300000  48.6670000  13.1270000
  54.0510000  57.9430000   4.9780000  53.8940000  58.0620000   3.5870000
  53.0700000  57.3860000   5.8090000  55.2810000  58.4310000   5.5830000
  53.0930000  57.7450000   3.1860000  54.8700000  58.6280000   2.7770000
  52.2560000  57.0680000   5.4360000  53.2490000  57.2840000   7.1960000
  56.2730000  59.0030000   4.7500000  55.4610000  58.3290000   6.9700000
  56.0950000  59.1040000   3.3760000  54.7060000  58.7530000   1.3540000
  52.2570000  56.7120000   8.0280000  54.4800000  57.7720000   7.8010000
  57.0790000  59.3240000   5.1400000  56.2740000  58.6460000   7.3430000
  57.0910000  59.6890000   2.5130000  53.9070000  58.4470000   0.9420000
  55.6850000  59.3040000   0.5920000  52.4360000  56.6110000   9.4030000
  51.4520000  56.3910000   7.6390000  54.6360000  57.6520000   9.1920000
  56.8930000  59.7870000   1.1770000  57.9010000  60.0130000   2.8880000
  55.5640000  59.3690000  -0.3480000  51.4400000  56.0250000  10.2660000
  53.6600000  57.0870000  10.0020000  55.4380000  57.9700000   9.5930000
  57.5610000  60.1780000   0.6280000  51.6380000  55.9280000  11.6020000
  50.6300000  55.7010000   9.8910000  53.8240000  56.9620000  11.4250000
  52.8450000  56.4110000  12.1860000  50.9690000  55.5360000  12.1510000
  54.6240000  57.2680000  11.8360000  52.9660000  56.3460000  13.1270000
  54.7870000  65.6220000   4.9780000  54.6300000  65.7410000   3.5870000
  53.8060000  65.0640000   5.8090000  56.0180000  66.1100000   5.5830000
  53.8290000  65.4230000   3.1860000  55.6060000  66.3060000   2.7770000
  52.9920000  64.7470000   5.4360000  53.9850000  64.9620000   7.1960000
  57.0100000  66.6810000   4.7500000  56.1970000  66.0080000   6.9700000
  56.8310000  66.7820000   3.3760000  55.4420000  66.4320000   1.3540000
  52.9930000  64.3910000   8.0280000  55.2160000  65.4500000   7.8010000
  57.8150000  67.0020000   5.1400000  57.0110000  66.3250000   7.3430000
  57.8270000  67.3680000   2.5130000  54.6430000  66.1250000   0.9420000
  56.4210000  66.9830000   0.5920000  53.1720000  64.2900000   9.4030000
  52.1880000  64.0700000   7.6390000  55.3720000  65.3310000   9.1920000
  57.6290000  67.4650000   1.1770000  58.6370000  67.6920000   2.8880000
  56.3000000  67.0480000  -0.3480000  52.1760000  63.7040000  10.2660000
  54.3960000  64.7660000  10.0020000  56.1740000  65.6480000   9.5930000
  58.2970000  67.8570000   0.6280000  52.3740000  63.6070000  11.6020000
  51.3660000  63.3800000   9.8910000  54.5600000  64.6400000  11.4250000
  53.5810000  64.0890000  12.1860000  51.7050000  63.2150000  12.1510000
  55.3600000  64.9470000  11.8360000  53.7020000  64.0240000  13.1270000
  55.5230000  73.3000000   4.9780000  55.3660000  73.4200000   3.5870000
  54.5420000  72.7430000   5.8090000  56.7540000  73.7880000   5.5830000
  54.5650000  73.1020000   3.1860000  56.3420000  73.9850000   2.7770000
  53.7280000  72.4260000   5.4360000  54.7210000  72.6410000   7.1960000
  57.7460000  74.3600000   4.7500000  56.9330000  73.6860000   6.9700000
  57.5670000  74.4610000   3.3760000  56.1790000  74.1100000   1.3540000
  53.7290000  72.0690000   8.0280000  55.9520000  73.1290000   7.8010000
  58.5510000  74.6810000   5.1400000  57.7470000  74.0030000   7.3430000
  58.5630000  75.0470000   2.5130000  55.3790000  73.8040000   0.9420000
  57.1580000  74.6610000   0.5920000  53.9080000  71.9680000   9.4030000
  52.9240000  71.7480000   7.6390000  56.1080000  73.0090000   9.1920000
  58.3650000  75.1440000   1.1770000  59.3730000  75.3710000   2.8880000
  57.0360000  74.7260000  -0.3480000  52.9120000  71.3820000  10.2660000
  55.1320000  72.4440000  10.0020000  56.9100000  73.3270000   9.5930000
  59.0330000  75.5360000   0.6280000  53.1100000  71.2850000  11.6020000
  52.1020000  71.0580000   9.8910000  55.2960000  72.3190000  11.4250000
  54.3170000  71.7680000  12.1860000  52.4410000  70.8930000  12.1510000
  56.0960000  72.6250000  11.8360000  54.4380000  71.7030000  13.1270000
  56.2590000  80.9790000   4.9780000  56.1030000  81.0980000   3.5870000
  55.2780000  80.4210000   5.8090000  57.4900000  81.4670000   5.5830000
  55.3010000  80.7810000   3.1860000  57.0790000  81.6630000   2.7770000
  54.4640000  80.1040000   5.4360000  55.4570000  80.3200000   7.1960000
  58.4820000  82.0380000   4.7500000  57.6690000  81.3650000   6.9700000
  58.3030000  82.1390000   3.3760000  56.9150000  81.7890000   1.3540000
  54.4650000  79.7480000   8.0280000  56.6880000  80.8070000   7.8010000
  59.2870000  82.3590000   5.1400000  58.4830000  81.6820000   7.3430000
  59.2990000  82.7250000   2.5130000  56.1150000  81.4820000   0.9420000
  57.8940000  82.3400000   0.5920000  54.6440000  79.6470000   9.4030000
  53.6600000  79.4270000   7.6390000  56.8450000  80.6880000   9.1920000
  59.1010000  82.8220000   1.1770000  60.1090000  83.0490000   2.8880000
  57.7730000  82.4050000  -0.3480000  53.6480000  79.0610000  10.2660000
  55.8690000  80.1230000  10.0020000  57.6460000  81.0060000   9.5930000
  59.7700000  83.2140000   0.6280000  53.8460000  78.9640000  11.6020000
  52.8380000  78.7370000   9.8910000  56.0320000  79.9980000  11.4250000
  55.0530000  79.4460000  12.1860000  53.1780000  78.5720000  12.1510000
  56.8320000  80.3040000  11.8360000  55.1750000  79.3820000  13.1270000
  54.1140000  46.8900000  89.3190000  53.9570000  47.0090000  87.9270000
  53.1330000  46.3320000  90.1500000  55.3450000  47.3780000  89.9230000
  53.1560000  46.6910000  87.5270000  54.9330000  47.5740000  87.1180000
  52.3190000  46.0150000  89.7770000  53.3120000  46.2300000  91.5370000
  56.3370000  47.9490000  89.0910000  55.5240000  47.2760000  91.3110000
  56.1580000  48.0500000  87.7170000  54.7690000  47.7000000  85.6950000
  52.3200000  45.6590000  92.3690000  54.5430000  46.7180000  92.1420000
  57.1420000  48.2700000  89.4810000  56.3370000  47.5930000  91.6830000
  57.1540000  48.6360000  86.8530000  53.9700000  47.3930000  85.2830000
  55.7480000  48.2510000  84.9330000  52.4990000  45.5580000  93.7440000
  51.5150000  45.3380000  91.9800000  54.6990000  46.5990000  93.5330000
  56.9560000  48.7330000  85.5180000  57.9640000  48.9600000  87.2290000
  55.6270000  48.3160000  83.9930000  51.5030000  44.9720000  94.6070000
  53.7230000  46.0340000  94.3430000  55.5010000  46.9160000  93.9340000
  57.6240000  49.1250000  84.9680000  51.7010000  44.8750000  95.9430000
  50.6930000  44.6480000  94.2320000  53.8870000  45.9080000  95.7650000
  52.9080000  45.3570000  96.5270000  51.0320000  44.4830000  96.4920000
  54.6870000  46.2150000  96.1770000  53.0290000  45.2920000  97.4680000
  55.2790000  54.3970000  92.1420000  55.4350000  54.2770000  93.5330000
  56.2600000  54.9540000  91.3110000  54.0480000  53.9090000  91.5370000
  56.2370000  54.5950000  93.9340000  54.4590000  53.7120000  94.3430000
  57.0740000  55.2710000  91.6830000  56.0810000  55.0560000  89.9230000
  53.0560000  53.3370000  92.3690000  53.8690000  54.0110000  90.1500000
  53.2350000  53.2360000  93.7440000  54.6230000  53.5870000  95.7650000
  57.0730000  55.6280000  89.0910000  54.8500000  54.5680000  89.3190000
  52.2510000  53.0160000  91.9800000  53.0550000  53.6940000  89.7770000
  52.2390000  52.6500000  94.6070000  55.4230000  53.8930000  96.1770000
  53.6440000  53.0360000  96.5270000  56.8940000  55.7290000  87.7170000
  57.8780000  55.9490000  89.4810000  54.6930000  54.6880000  87.9270000
  52.4370000  52.5530000  95.9430000  51.4290000  52.3260000  94.2320000
  53.7650000  52.9710000  97.4680000  57.8900000  56.3150000  86.8530000
  55.6690000  55.2530000  87.1180000  53.8920000  54.3700000  87.5270000
  51.7680000  52.1620000  96.4920000  57.6920000  56.4120000  85.5180000
  58.7000000  56.6390000  87.2290000  55.5060000  55.3780000  85.6950000
  56.4850000  55.9290000  84.9330000  58.3600000  56.8040000  84.9680000
  54.7060000  55.0720000  85.2830000  56.3630000  55.9940000  83.9930000
  55.5860000  62.2470000  89.3190000  55.4300000  62.3660000  87.9270000
  54.6050000  61.6890000  90.1500000  56.8170000  62.7350000  89.9230000
  54.6280000  62.0490000  87.5270000  56.4060000  62.9320000  87.1180000
  53.7910000  61.3720000  89.7770000  54.7840000  61.5880000  91.5370000
  57.8090000  63.3060000  89.0910000  56.9960000  62.6330000  91.3110000
  57.6300000  63.4070000  87.7170000  56.2420000  63.0570000  85.6950000
  53.7920000  61.0160000  92.3690000  56.0150000  62.0760000  92.1420000
  58.6140000  63.6270000  89.4810000  57.8100000  62.9500000  91.6830000
  58.6260000  63.9930000  86.8530000  55.4420000  62.7500000  85.2830000
  57.2210000  63.6080000  84.9330000  53.9710000  60.9150000  93.7440000
  52.9870000  60.6950000  91.9800000  56.1710000  61.9560000  93.5330000
  58.4280000  64.0900000  85.5180000  59.4360000  64.3170000  87.2290000
  57.1000000  63.6730000  83.9930000  52.9750000  60.3290000  94.6070000
  55.1960000  61.3910000  94.3430000  56.9730000  62.2740000  93.9340000
  59.0970000  64.4820000  84.9680000  53.1730000  60.2320000  95.9430000
  52.1650000  60.0050000  94.2320000  55.3590000  61.2660000  95.7650000
  54.3800000  60.7140000  96.5270000  52.5050000  59.8400000  96.4920000
  56.1590000  61.5720000  96.1770000  54.5020000  60.6500000  97.4680000
  56.4530000  76.4060000  21.8580000  56.6100000  76.2860000  23.2490000
  57.4340000  76.9630000  21.0270000  55.2220000  75.9180000  21.2530000
  57.4110000  76.6040000  23.6500000  55.6340000  75.7210000  24.0590000
  58.2480000  77.2800000  21.3990000  57.2550000  77.0650000  19.6390000
  54.2300000  75.3460000  22.0850000  55.0430000  76.0200000  19.8660000
  54.4090000  75.2450000  23.4600000  55.7980000  75.5960000  25.4810000
  58.2470000  77.6370000  18.8070000  56.0240000  76.5770000  19.0350000
  53.4250000  75.0250000  21.6960000  54.2300000  75.7030000  19.4930000
  53.4130000  74.6590000  24.3230000  56.5970000  75.9020000  25.8930000
  54.8190000  75.0450000  26.2430000  58.0680000  77.7380000  17.4320000
  59.0520000  77.9580000  19.1970000  55.8680000  76.6960000  17.6430000
  53.6110000  74.5620000  25.6590000  52.6030000  74.3350000  23.9480000
  54.9400000  74.9800000  27.1840000  59.0640000  78.3240000  16.5690000
  56.8440000  77.2620000  16.8340000  55.0660000  76.3790000  17.2430000
  52.9430000  74.1700000  26.2080000  58.8660000  78.4210000  15.2340000
  59.8740000  78.6470000  16.9450000  56.6800000  77.3870000  15.4110000
  57.6590000  77.9380000  14.6490000  59.5350000  78.8120000  14.6840000
  55.8800000  77.0810000  14.9990000  57.5380000  78.0030000  13.7090000
  56.5250000  79.8540000  33.0920000  56.3690000  79.9730000  31.7000000
  55.5440000  79.2970000  33.9230000  57.7560000  80.3420000  33.6960000
  55.5680000  79.6560000  31.3000000  57.3450000  80.5390000  30.8900000
  54.7310000  78.9790000  33.5500000  55.7240000  79.1950000  35.3100000
  58.7480000  80.9130000  32.8640000  57.9360000  80.2400000  35.0840000
  58.5690000  81.0140000  31.4890000  57.1810000  80.6640000  29.4680000
  54.7320000  78.6230000  36.1420000  56.9540000  79.6830000  35.9140000
  59.5530000  81.2350000  33.2530000  58.7490000  80.5570000  35.4560000
  59.5660000  81.6000000  30.6260000  56.3810000  80.3570000  29.0560000
  58.1600000  81.2150000  28.7060000  54.9100000  78.5220000  37.5170000
  53.9260000  78.3020000  35.7530000  57.1110000  79.5630000  37.3060000
  59.3680000  81.6980000  29.2910000  60.3750000  81.9240000  31.0020000
  58.0390000  81.2800000  27.7660000  53.9140000  77.9360000  38.3800000
  56.1350000  78.9980000  38.1160000  57.9120000  79.8810000  37.7070000
  60.0360000  82.0890000  28.7410000  54.1120000  77.8390000  39.7150000
  53.1050000  77.6120000  38.0050000  56.2990000  78.8730000  39.5380000
  55.3200000  78.3210000  40.3000000  53.4440000  77.4470000  40.2650000
  57.0990000  79.1790000  39.9500000  55.4410000  78.2570000  41.2410000
  57.1890000  84.0840000  21.8580000  57.3460000  83.9650000  23.2490000
  58.1700000  84.6420000  21.0270000  55.9590000  83.5960000  21.2530000
  58.1470000  84.2830000  23.6500000  56.3700000  83.4000000  24.0590000
  58.9840000  84.9590000  21.3990000  57.9910000  84.7440000  19.6390000
  54.9670000  83.0250000  22.0850000  55.7790000  83.6980000  19.8660000
  55.1450000  82.9240000  23.4600000  56.5340000  83.2740000  25.4810000
  58.9830000  85.3150000  18.8070000  56.7600000  84.2560000  19.0350000
  54.1610000  82.7040000  21.6960000  54.9660000  83.3810000  19.4930000
  54.1490000  82.3380000  24.3230000  57.3330000  83.5810000  25.8930000
  55.5550000  82.7230000  26.2430000  58.8040000  85.4160000  17.4320000
  59.7880000  85.6360000  19.1970000  56.6040000  84.3750000  17.6430000
  54.3470000  82.2410000  25.6590000  53.3390000  82.0140000  23.9480000
  55.6760000  82.6580000  27.1840000  59.8000000  86.0020000  16.5690000
  57.5800000  84.9400000  16.8340000  55.8020000  84.0570000  17.2430000
  53.6790000  81.8490000  26.2080000  59.6020000  86.0990000  15.2340000
  60.6100000  86.3260000  16.9450000  57.4160000  85.0660000  15.4110000
  58.3950000  85.6170000  14.6490000  60.2710000  86.4910000  14.6840000
  56.6160000  84.7590000  14.9990000  58.2740000  85.6820000  13.7090000
  57.2620000  87.5320000  33.0920000  57.1050000  87.6520000  31.7000000
  56.2800000  86.9750000  33.9230000  58.4920000  88.0200000  33.6960000
  56.3040000  87.3340000  31.3000000  58.0810000  88.2170000  30.8900000
  55.4670000  86.6580000  33.5500000  56.4600000  86.8730000  35.3100000
  59.4840000  88.5920000  32.8640000  58.6720000  87.9180000  35.0840000
  59.3060000  88.6930000  31.4890000  57.9170000  88.3420000  29.4680000
  55.4680000  86.3020000  36.1420000  57.6910000  87.3610000  35.9140000
  60.2900000  88.9130000  33.2530000  59.4850000  88.2360000  35.4560000
  60.3020000  89.2790000  30.6260000  57.1170000  88.0360000  29.0560000
  58.8960000  88.8940000  28.7060000  55.6470000  86.2010000  37.5170000
  54.6630000  85.9800000  35.7530000  57.8470000  87.2420000  37.3060000
  60.1040000  89.3760000  29.2910000  61.1110000  89.6030000  31.0020000
  58.7750000  88.9580000  27.7660000  54.6510000  85.6150000  38.3800000
  56.8710000  86.6760000  38.1160000  58.6480000  87.5590000  37.7070000
  60.7720000  89.7680000  28.7410000  54.8490000  85.5170000  39.7150000
  53.8410000  85.2910000  38.0050000  57.0350000  86.5510000  39.5380000
  56.0560000  86.0000000  40.3000000  54.1800000  85.1260000  40.2650000
  57.8350000  86.8580000  39.9500000  56.1770000  85.9350000  41.2410000
  49.8280000   7.2980000  21.8580000  49.9850000   7.1790000  23.2490000
  50.8090000   7.8560000  21.0270000  48.5970000   6.8100000  21.2530000
  50.7860000   7.4970000  23.6500000  49.0090000   6.6140000  24.0590000
  51.6230000   8.1730000  21.3990000  50.6300000   7.9580000  19.6390000
  47.6050000   6.2390000  22.0850000  48.4180000   6.9120000  19.8660000
  47.7840000   6.1380000  23.4600000  49.1720000   6.4880000  25.4810000
  51.6220000   8.5290000  18.8070000  49.3990000   7.4700000  19.0350000
  46.8000000   5.9180000  21.6960000  47.6040000   6.5950000  19.4930000
  46.7880000   5.5520000  24.3230000  49.9720000   6.7950000  25.8930000
  48.1940000   5.9370000  26.2430000  51.4430000   8.6300000  17.4320000
  52.4270000   8.8500000  19.1970000  49.2430000   7.5890000  17.6430000
  46.9860000   5.4550000  25.6590000  45.9780000   5.2280000  23.9480000
  48.3150000   5.8720000  27.1840000  52.4390000   9.2160000  16.5690000
  50.2190000   8.1540000  16.8340000  48.4410000   7.2710000  17.2430000
  46.3180000   5.0630000  26.2080000  52.2410000   9.3130000  15.2340000
  53.2490000   9.5400000  16.9450000  50.0550000   8.2800000  15.4110000
  51.0340000   8.8310000  14.6490000  52.9100000   9.7050000  14.6840000
  49.2550000   7.9730000  14.9990000  50.9130000   8.8960000  13.7090000
  49.9000000  10.7460000  33.0920000  49.7440000  10.8660000  31.7000000
  48.9190000  10.1890000  33.9230000  51.1310000  11.2340000  33.6960000
  48.9430000  10.5480000  31.3000000  50.7200000  11.4310000  30.8900000
  48.1060000   9.8720000  33.5500000  49.0990000  10.0870000  35.3100000
  52.1230000  11.8060000  32.8640000  51.3110000  11.1320000  35.0840000
  51.9440000  11.9070000  31.4890000  50.5560000  11.5560000  29.4680000
  48.1070000   9.5160000  36.1420000  50.3290000  10.5750000  35.9140000
  52.9280000  12.1270000  33.2530000  52.1240000  11.4500000  35.4560000
  52.9400000  12.4930000  30.6260000  49.7560000  11.2500000  29.0560000
  51.5350000  12.1080000  28.7060000  48.2850000   9.4150000  37.5170000
  47.3010000   9.1950000  35.7530000  50.4860000  10.4560000  37.3060000
  52.7420000  12.5900000  29.2910000  53.7500000  12.8170000  31.0020000
  51.4140000  12.1720000  27.7660000  47.2890000   8.8290000  38.3800000
  49.5100000   9.8900000  38.1160000  51.2870000  10.7730000  37.7070000
  53.4110000  12.9820000  28.7410000  47.4870000   8.7320000  39.7150000
  46.4800000   8.5050000  38.0050000  49.6740000   9.7650000  39.5380000
  48.6950000   9.2140000  40.3000000  46.8190000   8.3400000  40.2650000
  50.4740000  10.0720000  39.9500000  48.8160000   9.1490000  41.2410000
  51.9050000  23.8540000  89.3190000  51.7490000  23.9730000  87.9270000
  50.9240000  23.2970000  90.1500000  53.1360000  24.3420000  89.9230000
  50.9480000  23.6560000  87.5270000  52.7250000  24.5390000  87.1180000
  50.1110000  22.9790000  89.7770000  51.1040000  23.1950000  91.5370000
  54.1280000  24.9130000  89.0910000  53.3160000  24.2400000  91.3110000
  53.9490000  25.0140000  87.7170000  52.5610000  24.6640000  85.6950000
  50.1120000  22.6230000  92.3690000  52.3340000  23.6830000  92.1420000
  54.9330000  25.2340000  89.4810000  54.1290000  24.5570000  91.6830000
  54.9450000  25.6000000  86.8530000  51.7610000  24.3570000  85.2830000
  53.5400000  25.2150000  84.9330000  50.2900000  22.5220000  93.7440000
  49.3060000  22.3020000  91.9800000  52.4910000  23.5630000  93.5330000
  54.7480000  25.6980000  85.5180000  55.7550000  25.9240000  87.2290000
  53.4190000  25.2800000  83.9930000  49.2940000  21.9360000  94.6070000
  51.5150000  22.9980000  94.3430000  53.2920000  23.8810000  93.9340000
  55.4160000  26.0890000  84.9680000  49.4920000  21.8390000  95.9430000
  48.4850000  21.6120000  94.2320000  51.6790000  22.8730000  95.7650000
  50.7000000  22.3210000  96.5270000  48.8240000  21.4470000  96.4920000
  52.4790000  23.1790000  96.1770000  50.8210000  22.2570000  97.4680000
  51.3320000  17.1290000  64.0280000  51.4880000  17.0090000  65.4200000
  52.3130000  17.6860000  63.1970000  50.1010000  16.6410000  63.4240000
  52.2900000  17.3270000  65.8200000  50.5120000  16.4440000  66.2290000
  53.1270000  18.0030000  63.5700000  52.1340000  17.7880000  61.8100000
  49.1090000  16.0690000  64.2560000  49.9220000  16.7430000  62.0360000
  49.2880000  15.9680000  65.6300000  50.6760000  16.3190000  67.6520000
  53.1260000  18.3600000  60.9780000  50.9030000  17.3000000  61.2050000
  48.3040000  15.7480000  63.8660000  49.1080000  16.4260000  61.6640000
  48.2920000  15.3820000  66.4940000  51.4760000  16.6250000  68.0640000
  49.6970000  15.7680000  68.4140000  52.9470000  18.4610000  59.6030000
  53.9310000  18.6810000  61.3670000  50.7460000  17.4200000  59.8140000
  48.4900000  15.2850000  67.8290000  47.4820000  15.0580000  66.1180000
  49.8180000  15.7030000  69.3540000  53.9430000  19.0470000  58.7400000
  51.7220000  17.9850000  59.0040000  49.9450000  17.1020000  59.4130000
  47.8210000  14.8930000  68.3790000  53.7450000  19.1440000  57.4040000
  54.7530000  19.3710000  59.1150000  51.5590000  18.1100000  57.5820000
  52.5380000  18.6610000  56.8200000  54.4130000  19.5360000  56.8550000
  50.7590000  17.8040000  57.1700000  52.4160000  18.7260000  55.8790000
  51.8330000  20.4060000  78.0850000  51.9900000  20.2860000  79.4760000
  52.8140000  20.9630000  77.2540000  50.6020000  19.9180000  77.4800000
  52.7910000  20.6040000  79.8770000  51.0140000  19.7210000  80.2860000
  53.6280000  21.2800000  77.6270000  52.6350000  21.0650000  75.8670000
  49.6100000  19.3460000  78.3130000  50.4230000  20.0200000  76.0930000
  49.7890000  19.2450000  79.6870000  51.1780000  19.5960000  81.7090000
  53.6270000  21.6370000  75.0350000  51.4040000  20.5770000  75.2620000
  48.8050000  19.0250000  77.9230000  49.6090000  19.7020000  75.7200000
  48.7930000  18.6590000  80.5500000  51.9770000  19.9020000  82.1210000
  50.1990000  19.0450000  82.4710000  53.4480000  21.7380000  73.6600000
  54.4320000  21.9580000  75.4240000  51.2480000  20.6960000  73.8710000
  48.9910000  18.5620000  81.8860000  47.9830000  18.3350000  80.1750000
  50.3200000  18.9800000  83.4110000  54.4440000  22.3230000  72.7970000
  52.2240000  21.2620000  73.0610000  50.4460000  20.3790000  73.4700000
  48.3230000  18.1700000  82.4350000  54.2460000  22.4210000  71.4610000
  55.2540000  22.6470000  73.1720000  52.0600000  21.3870000  71.6380000
  53.0390000  21.9380000  70.8770000  54.9150000  22.8120000  70.9120000
  51.2600000  21.0810000  71.2270000  52.9180000  22.0030000  69.9360000
  50.4020000  14.0230000  47.1490000  50.2450000  14.1430000  45.7570000
  49.4200000  13.4660000  47.9790000  51.6320000  14.5110000  47.7530000
  49.4440000  13.8250000  45.3560000  51.2210000  14.7080000  44.9470000
  48.6070000  13.1490000  47.6070000  49.6000000  13.3640000  49.3670000
  52.6240000  15.0830000  46.9210000  51.8120000  14.4090000  49.1400000
  52.4460000  15.1840000  45.5460000  51.0570000  14.8330000  43.5250000
  48.6080000  12.7920000  50.1990000  50.8310000  13.8520000  49.9710000
  53.4300000  15.4040000  47.3100000  52.6250000  14.7270000  49.5130000
  53.4420000  15.7700000  44.6830000  50.2570000  14.5270000  43.1130000
  52.0360000  15.3840000  42.7630000  48.7870000  12.6910000  51.5740000
  47.8030000  12.4710000  49.8100000  50.9870000  13.7330000  51.3630000
  53.2440000  15.8670000  43.3480000  54.2520000  16.0940000  45.0580000
  51.9150000  15.4490000  41.8220000  47.7910000  12.1060000  52.4370000
  50.0110000  13.1670000  52.1730000  51.7880000  14.0500000  51.7630000
  53.9120000  16.2590000  42.7980000  47.9890000  12.0080000  53.7720000
  46.9810000  11.7820000  52.0610000  50.1750000  13.0420000  53.5950000
  49.1960000  12.4910000  54.3570000  47.3200000  11.6170000  54.3220000
  50.9750000  13.3480000  54.0070000  49.3170000  12.4260000  55.2970000
  50.1350000  15.1480000  19.0350000  49.9790000  15.2680000  17.6430000
  49.1540000  14.5910000  19.8660000  51.3660000  15.6360000  19.6390000
  49.1770000  14.9500000  17.2430000  50.9550000  15.8330000  16.8340000
  48.3410000  14.2740000  19.4930000  49.3330000  14.4890000  21.2530000
  52.3580000  16.2080000  18.8070000  51.5450000  15.5340000  21.0270000
  52.1790000  16.3090000  17.4320000  50.7910000  15.9580000  15.4110000
  48.3420000  13.9170000  22.0850000  50.5640000  14.9770000  21.8580000
  53.1630000  16.5290000  19.1970000  52.3590000  15.8510000  21.3990000
  53.1750000  16.8950000  16.5690000  49.9910000  15.6520000  14.9990000
  51.7700000  16.5090000  14.6490000  48.5200000  13.8160000  23.4600000
  47.5360000  13.5960000  21.6960000  50.7210000  14.8580000  23.2490000
  52.9770000  16.9920000  15.2340000  53.9850000  17.2190000  16.9450000
  51.6490000  16.5740000  13.7090000  47.5240000  13.2300000  24.3230000
  49.7450000  14.2920000  24.0590000  51.5220000  15.1750000  23.6500000
  53.6460000  17.3840000  14.6840000  47.7220000  13.1330000  25.6590000
  46.7140000  12.9060000  23.9480000  49.9090000  14.1670000  25.4810000
  48.9300000  13.6160000  26.2430000  47.0540000  12.7420000  26.2080000
  50.7080000  14.4730000  25.8930000  49.0510000  13.5510000  27.1840000
  50.6360000  18.4250000  33.0920000  50.4800000  18.5450000  31.7000000
  49.6550000  17.8680000  33.9230000  51.8670000  18.9130000  33.6960000
  49.6790000  18.2270000  31.3000000  51.4560000  19.1100000  30.8900000
  48.8420000  17.5510000  33.5500000  49.8350000  17.7660000  35.3100000
  52.8590000  19.4850000  32.8640000  52.0470000  18.8110000  35.0840000
  52.6810000  19.5860000  31.4890000  51.2920000  19.2350000  29.4680000
  48.8430000  17.1940000  36.1420000  51.0660000  18.2540000  35.9140000
  53.6650000  19.8060000  33.2530000  52.8600000  19.1280000  35.4560000
  53.6770000  20.1720000  30.6260000  50.4920000  18.9290000  29.0560000
  52.2710000  19.7860000  28.7060000  49.0210000  17.0930000  37.5170000
  48.0370000  16.8730000  35.7530000  51.2220000  18.1340000  37.3060000
  53.4790000  20.2690000  29.2910000  54.4860000  20.4960000  31.0020000
  52.1500000  19.8510000  27.7660000  48.0250000  16.5070000  38.3800000
  50.2460000  17.5690000  38.1160000  52.0230000  18.4520000  37.7070000
  54.1470000  20.6600000  28.7410000  48.2230000  16.4100000  39.7150000
  47.2160000  16.1830000  38.0050000  50.4100000  17.4440000  39.5380000
  49.4310000  16.8930000  40.3000000  47.5550000  16.0180000  40.2650000
  51.2100000  17.7500000  39.9500000  49.5520000  16.8280000  41.2410000
  51.1380000  21.7020000  47.1490000  50.9810000  21.8210000  45.7570000
  50.1570000  21.1450000  47.9790000  52.3690000  22.1900000  47.7530000
  50.1800000  21.5040000  45.3560000  51.9570000  22.3870000  44.9470000
  49.3430000  20.8270000  47.6070000  50.3360000  21.0430000  49.3670000
  53.3600000  22.7610000  46.9210000  52.5480000  22.0880000  49.1400000
  53.1820000  22.8630000  45.5460000  51.7930000  22.5120000  43.5250000
  49.3440000  20.4710000  50.1990000  51.5670000  21.5310000  49.9710000
  54.1660000  23.0830000  47.3100000  53.3610000  22.4050000  49.5130000
  54.1780000  23.4480000  44.6830000  50.9940000  22.2050000  43.1130000
  52.7720000  23.0630000  42.7630000  49.5230000  20.3700000  51.5740000
  48.5390000  20.1500000  49.8100000  51.7230000  21.4110000  51.3630000
  53.9800000  23.5460000  43.3480000  54.9880000  23.7720000  45.0580000
  52.6510000  23.1280000  41.8220000  48.5270000  19.7840000  52.4370000
  50.7470000  20.8460000  52.1730000  52.5250000  21.7290000  51.7630000
  54.6480000  23.9370000  42.7980000  48.7250000  19.6870000  53.7720000
  47.7170000  19.4600000  52.0610000  50.9110000  20.7210000  53.5950000
  49.9320000  20.1700000  54.3570000  48.0560000  19.2950000  54.3220000
  51.7110000  21.0270000  54.0070000  50.0530000  20.1050000  55.2970000
  52.0680000  24.8070000  64.0280000  52.2240000  24.6880000  65.4200000
  53.0490000  25.3650000  63.1970000  50.8370000  24.3190000  63.4240000
  53.0260000  25.0060000  65.8200000  51.2490000  24.1230000  66.2290000
  53.8630000  25.6820000  63.5700000  52.8700000  25.4670000  61.8100000
  49.8450000  23.7480000  64.2560000  50.6580000  24.4210000  62.0360000
  50.0240000  23.6470000  65.6300000  51.4120000  23.9970000  67.6520000
  53.8620000  26.0380000  60.9780000  51.6390000  24.9790000  61.2050000
  49.0400000  23.4270000  63.8660000  49.8440000  24.1040000  61.6640000
  49.0280000  23.0610000  66.4940000  52.2120000  24.3040000  68.0640000
  50.4330000  23.4460000  68.4140000  53.6830000  26.1390000  59.6030000
  54.6670000  26.3590000  61.3670000  51.4830000  25.0980000  59.8140000
  49.2260000  22.9640000  67.8290000  48.2180000  22.7370000  66.1180000
  50.5550000  23.3810000  69.3540000  54.6790000  26.7250000  58.7400000
  52.4590000  25.6630000  59.0040000  50.6810000  24.7810000  59.4130000
  48.5580000  22.5720000  68.3790000  54.4810000  26.8220000  57.4040000
  55.4890000  27.0490000  59.1150000  52.2950000  25.7890000  57.5820000
  53.2740000  26.3400000  56.8200000  55.1500000  27.2140000  56.8550000
  51.4950000  25.4820000  57.1700000  53.1530000  26.4050000  55.8790000
  52.5690000  28.0840000  78.0850000  52.7260000  27.9650000  79.4760000
  53.5500000  28.6420000  77.2540000  51.3390000  27.5960000  77.4800000
  53.5270000  28.2820000  79.8770000  51.7500000  27.4000000  80.2860000
  54.3640000  28.9590000  77.6270000  53.3710000  28.7440000  75.8670000
  50.3470000  27.0250000  78.3130000  51.1590000  27.6980000  76.0930000
  50.5250000  26.9240000  79.6870000  51.9140000  27.2740000  81.7090000
  54.3630000  29.3150000  75.0350000  52.1400000  28.2560000  75.2620000
  49.5410000  26.7040000  77.9230000  50.3460000  27.3810000  75.7200000
  49.5290000  26.3380000  80.5500000  52.7130000  27.5810000  82.1210000
  50.9350000  26.7230000  82.4710000  54.1840000  29.4160000  73.6600000
  55.1680000  29.6360000  75.4240000  51.9840000  28.3750000  73.8710000
  49.7270000  26.2410000  81.8860000  48.7190000  26.0140000  80.1750000
  51.0560000  26.6580000  83.4110000  55.1800000  30.0020000  72.7970000
  52.9600000  28.9400000  73.0610000  51.1820000  28.0570000  73.4700000
  49.0590000  25.8490000  82.4350000  54.9820000  30.0990000  71.4610000
  55.9900000  30.3260000  73.1720000  52.7960000  29.0660000  71.6380000
  53.7750000  29.6170000  70.8770000  55.6510000  30.4910000  70.9120000
  51.9960000  28.7590000  71.2270000  53.6540000  29.6820000  69.9360000
  52.6420000  31.5320000  89.3190000  52.4850000  31.6520000  87.9270000
  51.6600000  30.9750000  90.1500000  53.8720000  32.0200000  89.9230000
  51.6840000  31.3340000  87.5270000  53.4610000  32.2170000  87.1180000
  50.8470000  30.6580000  89.7770000  51.8400000  30.8730000  91.5370000
  54.8640000  32.5920000  89.0910000  54.0520000  31.9180000  91.3110000
  54.6860000  32.6930000  87.7170000  53.2970000  32.3420000  85.6950000
  50.8480000  30.3020000  92.3690000  53.0710000  31.3610000  92.1420000
  55.6700000  32.9130000  89.4810000  54.8650000  32.2360000  91.6830000
  55.6820000  33.2790000  86.8530000  52.4970000  32.0360000  85.2830000
  54.2760000  32.8930000  84.9330000  51.0270000  30.2000000  93.7440000
  50.0430000  29.9800000  91.9800000  53.2270000  31.2420000  93.5330000
  55.4840000  33.3760000  85.5180000  56.4910000  33.6030000  87.2290000
  54.1550000  32.9580000  83.9930000  50.0310000  29.6150000  94.6070000
  52.2510000  30.6760000  94.3430000  54.0280000  31.5590000  93.9340000
  56.1520000  33.7680000  84.9680000  50.2280000  29.5170000  95.9430000
  49.2210000  29.2910000  94.2320000  52.4150000  30.5510000  95.7650000
  51.4360000  30.0000000  96.5270000  49.5600000  29.1260000  96.4920000
  53.2150000  30.8580000  96.1770000  51.5570000  29.9350000  97.4680000
  50.8710000  22.8270000  19.0350000  50.7150000  22.9460000  17.6430000
  49.8900000  22.2700000  19.8660000  52.1020000  23.3150000  19.6390000
  49.9140000  22.6290000  17.2430000  51.6910000  23.5120000  16.8340000
  49.0770000  21.9520000  19.4930000  50.0700000  22.1680000  21.2530000
  53.0940000  23.8860000  18.8070000  52.2820000  23.2130000  21.0270000
  52.9150000  23.9870000  17.4320000  51.5270000  23.6370000  15.4110000
  49.0780000  21.5960000  22.0850000  51.3000000  22.6560000  21.8580000
  53.8990000  24.2080000  19.1970000  53.0950000  23.5300000  21.3990000
  53.9110000  24.5730000  16.5690000  50.7270000  23.3300000  14.9990000
  52.5060000  24.1880000  14.6490000  49.2560000  21.4950000  23.4600000
  48.2720000  21.2750000  21.6960000  51.4570000  22.5360000  23.2490000
  53.7130000  24.6710000  15.2340000  54.7210000  24.8970000  16.9450000
  52.3850000  24.2530000  13.7090000  48.2600000  20.9090000  24.3230000
  50.4810000  21.9710000  24.0590000  52.2580000  22.8540000  23.6500000
  54.3820000  25.0620000  14.6840000  48.4580000  20.8120000  25.6590000
  47.4510000  20.5850000  23.9480000  50.6450000  21.8460000  25.4810000
  49.6660000  21.2940000  26.2430000  47.7900000  20.4200000  26.2080000
  51.4450000  22.1520000  25.8930000  49.7870000  21.2300000  27.1840000
  51.3730000  26.1040000  33.0920000  51.2160000  26.2230000  31.7000000
  50.3910000  25.5460000  33.9230000  52.6030000  26.5920000  33.6960000
  50.4150000  25.9050000  31.3000000  52.1920000  26.7880000  30.8900000
  49.5780000  25.2290000  33.5500000  50.5710000  25.4440000  35.3100000
  53.5950000  27.1630000  32.8640000  52.7830000  26.4900000  35.0840000
  53.4170000  27.2640000  31.4890000  52.0280000  26.9140000  29.4680000
  49.5790000  24.8730000  36.1420000  51.8020000  25.9320000  35.9140000
  54.4010000  27.4840000  33.2530000  53.5960000  26.8070000  35.4560000
  54.4130000  27.8500000  30.6260000  51.2280000  26.6070000  29.0560000
  53.0070000  27.4650000  28.7060000  49.7580000  24.7720000  37.5170000
  48.7740000  24.5520000  35.7530000  51.9580000  25.8130000  37.3060000
  54.2150000  27.9470000  29.2910000  55.2220000  28.1740000  31.0020000
  52.8860000  27.5300000  27.7660000  48.7620000  24.1860000  38.3800000
  50.9820000  25.2480000  38.1160000  52.7590000  26.1310000  37.7070000
  54.8830000  28.3390000  28.7410000  48.9600000  24.0890000  39.7150000
  47.9520000  23.8620000  38.0050000  51.1460000  25.1220000  39.5380000
  50.1670000  24.5710000  40.3000000  48.2910000  23.6970000  40.2650000
  51.9460000  25.4290000  39.9500000  50.2880000  24.5060000  41.2410000
  51.8740000  29.3810000  47.1490000  51.7170000  29.5000000  45.7570000
  50.8930000  28.8230000  47.9790000  53.1050000  29.8680000  47.7530000
  50.9160000  29.1820000  45.3560000  52.6930000  30.0650000  44.9470000
  50.0790000  28.5060000  47.6070000  51.0720000  28.7210000  49.3670000
  54.0970000  30.4400000  46.9210000  53.2840000  29.7670000  49.1400000
  53.9180000  30.5410000  45.5460000  52.5300000  30.1900000  43.5250000
  50.0800000  28.1500000  50.1990000  52.3030000  29.2090000  49.9710000
  54.9020000  30.7610000  47.3100000  54.0980000  30.0840000  49.5130000
  54.9140000  31.1270000  44.6830000  51.7300000  29.8840000  43.1130000
  53.5090000  30.7420000  42.7630000  50.2590000  28.0490000  51.5740000
  49.2750000  27.8290000  49.8100000  52.4590000  29.0900000  51.3630000
  54.7160000  31.2240000  43.3480000  55.7240000  31.4510000  45.0580000
  53.3870000  30.8060000  41.8220000  49.2630000  27.4630000  52.4370000
  51.4830000  28.5250000  52.1730000  53.2610000  29.4070000  51.7630000
  55.3840000  31.6160000  42.7980000  49.4610000  27.3660000  53.7720000
  48.4530000  27.1390000  52.0610000  51.6470000  28.3990000  53.5950000
  50.6680000  27.8480000  54.3570000  48.7920000  26.9740000  54.3220000
  52.4470000  28.7060000  54.0070000  50.7890000  27.7830000  55.2970000
  52.8040000  32.4860000  64.0280000  52.9610000  32.3670000  65.4200000
  53.7850000  33.0430000  63.1970000  51.5730000  31.9980000  63.4240000
  53.7620000  32.6840000  65.8200000  51.9850000  31.8010000  66.2290000
  54.5990000  33.3610000  63.5700000  53.6060000  33.1450000  61.8100000
  50.5810000  31.4270000  64.2560000  51.3940000  32.1000000  62.0360000
  50.7600000  31.3250000  65.6300000  52.1480000  31.6760000  67.6520000
  54.5980000  33.7170000  60.9780000  52.3750000  32.6570000  61.2050000
  49.7760000  31.1050000  63.8660000  50.5800000  31.7830000  61.6640000
  49.7640000  30.7400000  66.4940000  52.9480000  31.9820000  68.0640000
  51.1700000  31.1250000  68.4140000  54.4190000  33.8180000  59.6030000
  55.4030000  34.0380000  61.3670000  52.2190000  32.7770000  59.8140000
  49.9620000  30.6420000  67.8290000  48.9540000  30.4160000  66.1180000
  51.2910000  31.0600000  69.3540000  55.4150000  34.4040000  58.7400000
  53.1950000  33.3420000  59.0040000  51.4170000  32.4590000  59.4130000
  49.2940000  30.2510000  68.3790000  55.2170000  34.5010000  57.4040000
  56.2250000  34.7280000  59.1150000  53.0310000  33.4670000  57.5820000
  54.0100000  34.0180000  56.8200000  55.8860000  34.8930000  56.8550000
  52.2310000  33.1610000  57.1700000  53.8890000  34.0830000  55.8790000
  52.8760000  35.9340000  75.2620000  52.7200000  36.0540000  73.8710000
  51.8950000  35.3770000  76.0930000  54.1070000  36.4220000  75.8670000
  51.9190000  35.7360000  73.4700000  53.6960000  36.6190000  73.0610000
  51.0820000  35.0600000  75.7200000  52.0750000  35.2750000  77.4800000
  55.0990000  36.9940000  75.0350000  54.2870000  36.3200000  77.2540000
  54.9200000  37.0950000  73.6600000  53.5320000  36.7440000  71.6380000
  51.0830000  34.7030000  78.3130000  53.3050000  35.7630000  78.0850000
  55.9040000  37.3150000  75.4240000  55.1000000  36.6370000  77.6270000
  55.9160000  37.6810000  72.7970000  52.7320000  36.4380000  71.2270000
  54.5110000  37.2950000  70.8770000  51.2610000  34.6020000  79.6870000
  50.2770000  34.3820000  77.9230000  53.4620000  35.6430000  79.4760000
  55.7180000  37.7780000  71.4610000  56.7260000  38.0050000  73.1720000
  54.3900000  37.3600000  69.9360000  50.2650000  34.0160000  80.5500000
  52.4860000  35.0780000  80.2860000  54.2630000  35.9610000  79.8770000
  56.3870000  38.1700000  70.9120000  50.4630000  33.9190000  81.8860000
  49.4560000  33.6920000  80.1750000  52.6500000  34.9530000  81.7090000
  51.6710000  34.4020000  82.4710000  49.7950000  33.5270000  82.4350000
  53.4500000  35.2590000  82.1210000  51.7920000  34.3370000  83.4110000
  53.8070000  39.0400000  92.1420000  53.9630000  38.9200000  93.5330000
  54.7880000  39.5970000  91.3110000  52.5760000  38.5520000  91.5370000
  54.7640000  39.2380000  93.9340000  52.9870000  38.3550000  94.3430000
  55.6010000  39.9140000  91.6830000  54.6080000  39.6990000  89.9230000
  51.5840000  37.9800000  92.3690000  52.3970000  38.6540000  90.1500000
  51.7630000  37.8790000  93.7440000  53.1510000  38.2300000  95.7650000
  55.6000000  40.2710000  89.0910000  53.3780000  39.2110000  89.3190000
  50.7790000  37.6590000  91.9800000  51.5830000  38.3370000  89.7770000
  50.7670000  37.2930000  94.6070000  53.9510000  38.5360000  96.1770000
  52.1720000  37.6790000  96.5270000  55.4220000  40.3720000  87.7170000
  56.4060000  40.5920000  89.4810000  53.2210000  39.3300000  87.9270000
  50.9650000  37.1960000  95.9430000  49.9570000  36.9690000  94.2320000
  52.2930000  37.6140000  97.4680000  56.4180000  40.9570000  86.8530000
  54.1970000  39.8960000  87.1180000  52.4200000  39.0130000  87.5270000
  50.2960000  36.8040000  96.4920000  56.2200000  41.0550000  85.5180000
  57.2280000  41.2810000  87.2290000  54.0330000  40.0210000  85.6950000
  55.0120000  40.5720000  84.9330000  56.8880000  41.4460000  84.9680000
  53.2340000  39.7150000  85.2830000  54.8910000  40.6370000  83.9930000
  52.1090000  33.7820000  33.0920000  51.9520000  33.9020000  31.7000000
  51.1280000  33.2250000  33.9230000  53.3400000  34.2700000  33.6960000
  51.1510000  33.5840000  31.3000000  52.9280000  34.4670000  30.8900000
  50.3140000  32.9080000  33.5500000  51.3070000  33.1230000  35.3100000
  54.3310000  34.8420000  32.8640000  53.5190000  34.1680000  35.0840000
  54.1530000  34.9430000  31.4890000  52.7640000  34.5920000  29.4680000
  50.3150000  32.5510000  36.1420000  52.5380000  33.6110000  35.9140000
  55.1370000  35.1630000  33.2530000  54.3320000  34.4850000  35.4560000
  55.1490000  35.5290000  30.6260000  51.9650000  34.2860000  29.0560000
  53.7430000  35.1430000  28.7060000  50.4940000  32.4500000  37.5170000
  49.5100000  32.2300000  35.7530000  52.6940000  33.4920000  37.3060000
  54.9510000  35.6260000  29.2910000  55.9590000  35.8530000  31.0020000
  53.6220000  35.2080000  27.7660000  49.4980000  31.8640000  38.3800000
  51.7180000  32.9260000  38.1160000  53.4960000  33.8090000  37.7070000
  55.6190000  36.0180000  28.7410000  49.6960000  31.7670000  39.7150000
  48.6880000  31.5410000  38.0050000  51.8820000  32.8010000  39.5380000
  50.9030000  32.2500000  40.3000000  49.0270000  31.3760000  40.2650000
  52.6820000  33.1070000  39.9500000  51.0240000  32.1850000  41.2410000
  52.0370000  30.3340000  21.8580000  52.1930000  30.2150000  23.2490000
  53.0180000  30.8910000  21.0270000  50.8060000  29.8460000  21.2530000
  52.9940000  30.5320000  23.6500000  51.2170000  29.6490000  24.0590000
  53.8310000  31.2090000  21.3990000  52.8380000  30.9930000  19.6390000
  49.8140000  29.2750000  22.0850000  50.6260000  29.9480000  19.8660000
  49.9920000  29.1740000  23.4600000  51.3810000  29.5240000  25.4810000
  53.8300000  31.5650000  18.8070000  51.6070000  30.5050000  19.0350000
  49.0080000  28.9530000  21.6960000  49.8130000  29.6310000  19.4930000
  48.9960000  28.5880000  24.3230000  52.1810000  29.8310000  25.8930000
  50.4020000  28.9730000  26.2430000  53.6520000  31.6660000  17.4320000
  54.6360000  31.8860000  19.1970000  51.4510000  30.6250000  17.6430000
  49.1940000  28.4900000  25.6590000  48.1870000  28.2640000  23.9480000
  50.5230000  28.9080000  27.1840000  54.6480000  32.2520000  16.5690000
  52.4270000  31.1900000  16.8340000  50.6500000  30.3070000  17.2430000
  48.5260000  28.0990000  26.2080000  54.4500000  32.3490000  15.2340000
  55.4570000  32.5760000  16.9450000  52.2630000  31.3150000  15.4110000
  53.2420000  31.8670000  14.6490000  55.1180000  32.7410000  14.6840000
  51.4630000  31.0090000  14.9990000  53.1210000  31.9310000  13.7090000
  52.6100000  37.0590000  47.1490000  52.4540000  37.1790000  45.7570000
  51.6290000  36.5020000  47.9790000  53.8410000  37.5470000  47.7530000
  51.6520000  36.8610000  45.3560000  53.4290000  37.7440000  44.9470000
  50.8150000  36.1850000  47.6070000  51.8080000  36.4000000  49.3670000
  54.8330000  38.1190000  46.9210000  54.0200000  37.4450000  49.1400000
  54.6540000  38.2200000  45.5460000  53.2660000  37.8690000  43.5250000
  50.8160000  35.8280000  50.1990000  53.0390000  36.8880000  49.9710000
  55.6380000  38.4400000  47.3100000  54.8340000  37.7620000  49.5130000
  55.6500000  38.8060000  44.6830000  52.4660000  37.5630000  43.1130000
  54.2450000  38.4200000  42.7630000  50.9950000  35.7270000  51.5740000
  50.0110000  35.5070000  49.8100000  53.1950000  36.7680000  51.3630000
  55.4520000  38.9030000  43.3480000  56.4600000  39.1300000  45.0580000
  54.1230000  38.4850000  41.8220000  49.9990000  35.1410000  52.4370000
  52.2200000  36.2030000  52.1730000  53.9970000  37.0860000  51.7630000
  56.1210000  39.2950000  42.7980000  50.1970000  35.0440000  53.7720000
  49.1890000  34.8170000  52.0610000  52.3830000  36.0780000  53.5950000
  51.4040000  35.5270000  54.3570000  49.5290000  34.6520000  54.3220000
  53.1830000  36.3840000  54.0070000  51.5260000  35.4620000  55.2970000
  53.5400000  40.1650000  64.0280000  53.6970000  40.0450000  65.4200000
  54.5210000  40.7220000  63.1970000  52.3090000  39.6770000  63.4240000
  54.4980000  40.3630000  65.8200000  52.7210000  39.4800000  66.2290000
  55.3350000  41.0390000  63.5700000  54.3420000  40.8240000  61.8100000
  51.3180000  39.1050000  64.2560000  52.1300000  39.7790000  62.0360000
  51.4960000  39.0040000  65.6300000  52.8850000  39.3550000  67.6520000
  55.3340000  41.3950000  60.9780000  53.1110000  40.3360000  61.2050000
  50.5120000  38.7840000  63.8660000  51.3170000  39.4610000  61.6640000
  50.5000000  38.4180000  66.4940000  53.6840000  39.6610000  68.0640000
  51.9060000  38.8040000  68.4140000  55.1550000  41.4970000  59.6030000
  56.1390000  41.7170000  61.3670000  52.9550000  40.4550000  59.8140000
  50.6980000  38.3210000  67.8290000  49.6900000  38.0940000  66.1180000
  52.0270000  38.7390000  69.3540000  56.1510000  42.0820000  58.7400000
  53.9310000  41.0210000  59.0040000  52.1530000  40.1380000  59.4130000
  50.0300000  37.9290000  68.3790000  55.9530000  42.1800000  57.4040000
  56.9610000  42.4060000  59.1150000  53.7670000  41.1460000  57.5820000
  54.7460000  41.6970000  56.8200000  56.6220000  42.5710000  56.8550000
  52.9670000  40.8400000  57.1700000  54.6250000  41.7620000  55.8790000
  53.6130000  43.6130000  75.2620000  53.4560000  43.7320000  73.8710000
  52.6310000  43.0550000  76.0930000  54.8430000  44.1010000  75.8670000
  52.6550000  43.4150000  73.4700000  54.4320000  44.2970000  73.0610000
  51.8180000  42.7380000  75.7200000  52.8110000  42.9530000  77.4800000
  55.8350000  44.6720000  75.0350000  55.0230000  43.9990000  77.2540000
  55.6570000  44.7730000  73.6600000  54.2680000  44.4230000  71.6380000
  51.8190000  42.3820000  78.3130000  54.0420000  43.4410000  78.0850000
  56.6410000  44.9930000  75.4240000  55.8360000  44.3160000  77.6270000
  56.6530000  45.3590000  72.7970000  53.4680000  44.1160000  71.2270000
  55.2470000  44.9740000  70.8770000  51.9970000  42.2810000  79.6870000
  51.0140000  42.0610000  77.9230000  54.1980000  43.3220000  79.4760000
  56.4550000  45.4560000  71.4610000  57.4620000  45.6830000  73.1720000
  55.1260000  45.0390000  69.9360000  51.0010000  41.6950000  80.5500000
  53.2220000  42.7570000  80.2860000  54.9990000  43.6400000  79.8770000
  57.1230000  45.8480000  70.9120000  51.1990000  41.5980000  81.8860000
  50.1920000  41.3710000  80.1750000  53.3860000  42.6320000  81.7090000
  52.4070000  42.0800000  82.4710000  50.5310000  41.2060000  82.4350000
  54.1860000  42.9380000  82.1210000  52.5280000  42.0160000  83.4110000
  52.3440000  38.1840000  19.0350000  52.1870000  38.3030000  17.6430000
  51.3620000  37.6270000  19.8660000  53.5740000  38.6720000  19.6390000
  51.3860000  37.9860000  17.2430000  53.1630000  38.8690000  16.8340000
  50.5490000  37.3100000  19.4930000  51.5420000  37.5250000  21.2530000
  54.5660000  39.2440000  18.8070000  53.7540000  38.5700000  21.0270000
  54.3880000  39.3450000  17.4320000  52.9990000  38.9940000  15.4110000
  50.5500000  36.9530000  22.0850000  52.7730000  38.0130000  21.8580000
  55.3720000  39.5650000  19.1970000  54.5670000  38.8870000  21.3990000
  55.3840000  39.9310000  16.5690000  52.1990000  38.6880000  14.9990000
  53.9780000  39.5450000  14.6490000  50.7290000  36.8520000  23.4600000
  49.7450000  36.6320000  21.6960000  52.9290000  37.8930000  23.2490000
  55.1860000  40.0280000  15.2340000  56.1930000  40.2550000  16.9450000
  53.8570000  39.6100000  13.7090000  49.7330000  36.2660000  24.3230000
  51.9530000  37.3280000  24.0590000  53.7300000  38.2110000  23.6500000
  55.8540000  40.4190000  14.6840000  49.9310000  36.1690000  25.6590000
  48.9230000  35.9420000  23.9480000  52.1170000  37.2030000  25.4810000
  51.1380000  36.6520000  26.2430000  49.2620000  35.7770000  26.2080000
  52.9170000  37.5090000  25.8930000  51.2590000  36.5870000  27.1840000
  52.8450000  41.4610000  33.0920000  52.6880000  41.5800000  31.7000000
  51.8640000  40.9040000  33.9230000  54.0760000  41.9490000  33.6960000
  51.8870000  41.2630000  31.3000000  53.6640000  42.1460000  30.8900000
  51.0500000  40.5860000  33.5500000  52.0430000  40.8020000  35.3100000
  55.0680000  42.5200000  32.8640000  54.2550000  41.8470000  35.0840000
  54.8890000  42.6210000  31.4890000  53.5010000  42.2710000  29.4680000
  51.0510000  40.2300000  36.1420000  53.2740000  41.2900000  35.9140000
  55.8730000  42.8420000  33.2530000  55.0690000  42.1640000  35.4560000
  55.8850000  43.2070000  30.6260000  52.7010000  41.9640000  29.0560000
  54.4790000  42.8220000  28.7060000  51.2300000  40.1290000  37.5170000
  50.2460000  39.9090000  35.7530000  53.4300000  41.1700000  37.3060000
  55.6870000  43.3050000  29.2910000  56.6950000  43.5310000  31.0020000
  54.3580000  42.8870000  27.7660000  50.2340000  39.5430000  38.3800000
  52.4540000  40.6050000  38.1160000  54.2320000  41.4880000  37.7070000
  56.3550000  43.6960000  28.7410000  50.4320000  39.4460000  39.7150000
  49.4240000  39.2190000  38.0050000  52.6180000  40.4800000  39.5380000
  51.6390000  39.9290000  40.3000000  49.7630000  39.0540000  40.2650000
  53.4180000  40.7860000  39.9500000  51.7600000  39.8640000  41.2410000
  53.3460000  44.7380000  47.1490000  53.1900000  44.8570000  45.7570000
  52.3650000  44.1800000  47.9790000  54.5770000  45.2260000  47.7530000
  52.3880000  44.5400000  45.3560000  54.1660000  45.4220000  44.9470000
  51.5510000  43.8630000  47.6070000  52.5440000  44.0780000  49.3670000
  55.5690000  45.7970000  46.9210000  54.7560000  45.1240000  49.1400000
  55.3900000  45.8980000  45.5460000  54.0020000  45.5480000  43.5250000
  51.5520000  43.5070000  50.1990000  53.7750000  44.5660000  49.9710000
  56.3740000  46.1180000  47.3100000  55.5700000  45.4410000  49.5130000
  56.3860000  46.4840000  44.6830000  53.2020000  45.2410000  43.1130000
  54.9810000  46.0990000  42.7630000  51.7310000  43.4060000  51.5740000
  50.7470000  43.1860000  49.8100000  53.9320000  44.4470000  51.3630000
  56.1880000  46.5810000  43.3480000  57.1960000  46.8080000  45.0580000
  54.8600000  46.1640000  41.8220000  50.7350000  42.8200000  52.4370000
  52.9560000  43.8820000  52.1730000  54.7330000  44.7650000  51.7630000
  56.8570000  46.9730000  42.7980000  50.9330000  42.7230000  53.7720000
  49.9250000  42.4960000  52.0610000  53.1190000  43.7560000  53.5950000
  52.1410000  43.2050000  54.3570000  50.2650000  42.3310000  54.3220000
  53.9190000  44.0630000  54.0070000  52.2620000  43.1400000  55.2970000
  54.2760000  47.8430000  64.0280000  54.4330000  47.7240000  65.4200000
  55.2580000  48.4010000  63.1970000  53.0460000  47.3550000  63.4240000
  55.2340000  48.0410000  65.8200000  53.4570000  47.1590000  66.2290000
  56.0710000  48.7180000  63.5700000  55.0780000  48.5030000  61.8100000
  52.0540000  46.7840000  64.2560000  52.8660000  47.4570000  62.0360000
  52.2320000  46.6830000  65.6300000  53.6210000  47.0330000  67.6520000
  56.0700000  49.0740000  60.9780000  53.8470000  48.0150000  61.2050000
  51.2480000  46.4630000  63.8660000  52.0530000  47.1400000  61.6640000
  51.2360000  46.0970000  66.4940000  54.4210000  47.3400000  68.0640000
  52.6420000  46.4820000  68.4140000  55.8910000  49.1750000  59.6030000
  56.8750000  49.3950000  61.3670000  53.6910000  48.1340000  59.8140000
  51.4340000  46.0000000  67.8290000  50.4270000  45.7730000  66.1180000
  52.7630000  46.4170000  69.3540000  56.8870000  49.7610000  58.7400000
  54.6670000  48.6990000  59.0040000  52.8900000  47.8160000  59.4130000
  50.7660000  45.6080000  68.3790000  56.6890000  49.8580000  57.4040000
  57.6970000  50.0850000  59.1150000  54.5030000  48.8250000  57.5820000
  55.4820000  49.3760000  56.8200000  57.3580000  50.2500000  56.8550000
  53.7030000  48.5180000  57.1700000  55.3610000  49.4400000  55.8790000
  54.7780000  51.1200000  78.0850000  54.9340000  51.0010000  79.4760000
  55.7590000  51.6770000  77.2540000  53.5470000  50.6320000  77.4800000
  55.7350000  51.3180000  79.8770000  53.9580000  50.4350000  80.2860000
  56.5720000  51.9950000  77.6270000  55.5790000  51.7790000  75.8670000
  52.5550000  50.0610000  78.3130000  53.3670000  50.7340000  76.0930000
  52.7340000  49.9590000  79.6870000  54.1220000  50.3100000  81.7090000
  56.5710000  52.3510000  75.0350000  54.3490000  51.2910000  75.2620000
  51.7500000  49.7390000  77.9230000  52.5540000  50.4170000  75.7200000
  51.7380000  49.3740000  80.5500000  54.9220000  50.6170000  82.1210000
  53.1430000  49.7590000  82.4710000  56.3930000  52.4520000  73.6600000
  57.3770000  52.6720000  75.4240000  54.1920000  51.4110000  73.8710000
  51.9360000  49.2760000  81.8860000  50.9280000  49.0500000  80.1750000
  53.2640000  49.6940000  83.4110000  57.3890000  53.0380000  72.7970000
  55.1680000  51.9760000  73.0610000  53.3910000  51.0930000  73.4700000
  51.2670000  48.8850000  82.4350000  57.1910000  53.1350000  71.4610000
  58.1990000  53.3620000  73.1720000  55.0040000  52.1010000  71.6380000
  55.9830000  52.6520000  70.8770000  57.8590000  53.5270000  70.9120000
  54.2040000  51.7950000  71.2270000  55.8620000  52.7170000  69.9360000
  53.5810000  49.1390000  33.0920000  53.4250000  49.2590000  31.7000000
  52.6000000  48.5820000  33.9230000  54.8120000  49.6270000  33.6960000
  52.6230000  48.9410000  31.3000000  54.4000000  49.8240000  30.8900000
  51.7860000  48.2650000  33.5500000  52.7790000  48.4800000  35.3100000
  55.8040000  50.1990000  32.8640000  54.9910000  49.5250000  35.0840000
  55.6250000  50.3000000  31.4890000  54.2370000  49.9490000  29.4680000
  51.7870000  47.9090000  36.1420000  54.0100000  48.9680000  35.9140000
  56.6090000  50.5200000  33.2530000  55.8050000  49.8430000  35.4560000
  56.6210000  50.8860000  30.6260000  53.4370000  49.6430000  29.0560000
  55.2160000  50.5010000  28.7060000  51.9660000  47.8080000  37.5170000
  50.9820000  47.5870000  35.7530000  54.1660000  48.8490000  37.3060000
  56.4230000  50.9830000  29.2910000  57.4310000  51.2100000  31.0020000
  55.0940000  50.5650000  27.7660000  50.9700000  47.2220000  38.3800000
  53.1910000  48.2830000  38.1160000  54.9680000  49.1660000  37.7070000
  57.0910000  51.3750000  28.7410000  51.1680000  47.1240000  39.7150000
  50.1600000  46.8980000  38.0050000  53.3540000  48.1580000  39.5380000
  52.3750000  47.6070000  40.3000000  50.4990000  46.7330000  40.2650000
  54.1540000  48.4650000  39.9500000  52.4960000  47.5420000  41.2410000
  54.5830000  55.6930000  61.2050000  54.4270000  55.8130000  59.8140000
  53.6020000  55.1360000  62.0360000  55.8140000  56.1810000  61.8100000
  53.6260000  55.4950000  59.4130000  55.4030000  56.3780000  59.0040000
  52.7890000  54.8190000  61.6640000  53.7820000  55.0340000  63.4240000
  56.8060000  56.7530000  60.9780000  55.9940000  56.0790000  63.1970000
  56.6280000  56.8540000  59.6030000  55.2390000  56.5030000  57.5820000
  52.7900000  54.4620000  64.2560000  55.0130000  55.5220000  64.0280000
  57.6120000  57.0740000  61.3670000  56.8070000  56.3960000  63.5700000
  57.6240000  57.4400000  58.7400000  54.4390000  56.1970000  57.1700000
  56.2180000  57.0540000  56.8200000  52.9680000  54.3610000  65.6300000
  51.9840000  54.1410000  63.8660000  55.1690000  55.4020000  65.4200000
  57.4260000  57.5370000  57.4040000  58.4330000  57.7640000  59.1150000
  56.0970000  57.1190000  55.8790000  51.9720000  53.7750000  66.4940000
  54.1930000  54.8370000  66.2290000  55.9700000  55.7200000  65.8200000
  58.0940000  57.9290000  56.8550000  52.1700000  53.6780000  67.8290000
  51.1630000  53.4510000  66.1180000  54.3570000  54.7120000  67.6520000
  53.3780000  54.1610000  68.4140000  51.5020000  53.2860000  68.3790000
  55.1570000  55.0180000  68.0640000  53.4990000  54.0960000  69.3540000
  53.5090000  45.6910000  21.8580000  53.6650000  45.5720000  23.2490000
  54.4900000  46.2490000  21.0270000  52.2780000  45.2030000  21.2530000
  54.4670000  45.8900000  23.6500000  52.6890000  45.0070000  24.0590000
  55.3030000  46.5660000  21.3990000  54.3110000  46.3510000  19.6390000
  51.2860000  44.6320000  22.0850000  52.0990000  45.3050000  19.8660000
  51.4650000  44.5310000  23.4600000  52.8530000  44.8810000  25.4810000
  55.3020000  46.9220000  18.8070000  53.0800000  45.8630000  19.0350000
  50.4810000  44.3110000  21.6960000  51.2850000  44.9880000  19.4930000
  50.4690000  43.9450000  24.3230000  53.6530000  45.1880000  25.8930000
  51.8740000  44.3300000  26.2430000  55.1240000  47.0230000  17.4320000
  56.1080000  47.2430000  19.1970000  52.9230000  45.9820000  17.6430000
  50.6670000  43.8480000  25.6590000  49.6590000  43.6210000  23.9480000
  51.9950000  44.2650000  27.1840000  56.1200000  47.6090000  16.5690000
  53.8990000  46.5470000  16.8340000  52.1220000  45.6640000  17.2430000
  49.9980000  43.4560000  26.2080000  55.9220000  47.7060000  15.2340000
  56.9300000  47.9330000  16.9450000  53.7350000  46.6730000  15.4110000
  54.7140000  47.2240000  14.6490000  56.5900000  48.0980000  14.6840000
  52.9360000  46.3660000  14.9990000  54.5930000  47.2890000  13.7090000
  54.5110000  52.2450000  49.9710000  54.6680000  52.1260000  51.3630000
  55.4920000  52.8020000  49.1400000  53.2800000  51.7570000  49.3670000
  55.4690000  52.4430000  51.7630000  53.6920000  51.5600000  52.1730000
  56.3060000  53.1200000  49.5130000  55.3130000  52.9040000  47.7530000
  52.2890000  51.1850000  50.1990000  53.1010000  51.8590000  47.9790000
  52.4670000  51.0840000  51.5740000  53.8560000  51.4350000  53.5950000
  56.3050000  53.4760000  46.9210000  54.0820000  52.4160000  47.1490000
  51.4830000  50.8640000  49.8100000  52.2880000  51.5420000  47.6070000
  51.4710000  50.4990000  52.4370000  54.6550000  51.7410000  54.0070000
  52.8770000  50.8840000  54.3570000  56.1260000  53.5770000  45.5460000
  57.1100000  53.7970000  47.3100000  53.9260000  52.5360000  45.7570000
  51.6690000  50.4010000  53.7720000  50.6610000  50.1750000  52.0610000
  52.9980000  50.8190000  55.2970000  57.1220000  54.1630000  44.6830000
  54.9020000  53.1010000  44.9470000  53.1240000  52.2180000  45.3560000
  51.0010000  50.0100000  54.3220000  56.9240000  54.2600000  43.3480000
  57.9320000  54.4870000  45.0580000  54.7380000  53.2260000  43.5250000
  55.7170000  53.7770000  42.7630000  57.5930000  54.6520000  42.7980000
  53.9380000  52.9200000  43.1130000  55.5960000  53.8420000  41.8220000
  55.5140000  58.7990000  78.0850000  55.6700000  58.6790000  79.4760000
  56.4950000  59.3560000  77.2540000  54.2830000  58.3110000  77.4800000
  56.4720000  58.9970000  79.8770000  54.6940000  58.1140000  80.2860000
  57.3080000  59.6730000  77.6270000  56.3160000  59.4580000  75.8670000
  53.2910000  57.7390000  78.3130000  54.1040000  58.4130000  76.0930000
  53.4700000  57.6380000  79.6870000  54.8580000  57.9890000  81.7090000
  57.3070000  60.0300000  75.0350000  55.0850000  58.9700000  75.2620000
  52.4860000  57.4180000  77.9230000  53.2900000  58.0950000  75.7200000
  52.4740000  57.0520000  80.5500000  55.6580000  58.2950000  82.1210000
  53.8790000  57.4380000  82.4710000  57.1290000  60.1310000  73.6600000
  58.1130000  60.3510000  75.4240000  54.9280000  59.0890000  73.8710000
  52.6720000  56.9550000  81.8860000  51.6640000  56.7280000  80.1750000
  54.0000000  57.3730000  83.4110000  58.1250000  60.7160000  72.7970000
  55.9040000  59.6550000  73.0610000  54.1270000  58.7720000  73.4700000
  52.0030000  56.5630000  82.4350000  57.9270000  60.8140000  71.4610000
  58.9350000  61.0400000  73.1720000  55.7400000  59.7800000  71.6380000
  56.7190000  60.3310000  70.8770000  58.5950000  61.2050000  70.9120000
  54.9410000  59.4740000  71.2270000  56.5980000  60.3960000  69.9360000
  55.8210000  66.6490000  75.2620000  55.6640000  66.7680000  73.8710000
  54.8400000  66.0910000  76.0930000  57.0520000  67.1370000  75.8670000
  54.8630000  66.4500000  73.4700000  56.6400000  67.3330000  73.0610000
  54.0260000  65.7740000  75.7200000  55.0190000  65.9890000  77.4800000
  58.0440000  67.7080000  75.0350000  57.2310000  67.0350000  77.2540000
  57.8650000  67.8090000  73.6600000  56.4770000  67.4590000  71.6380000
  54.0270000  65.4180000  78.3130000  56.2500000  66.4770000  78.0850000
  58.8490000  68.0290000  75.4240000  58.0450000  67.3520000  77.6270000
  58.8610000  68.3950000  72.7970000  55.6770000  67.1520000  71.2270000
  57.4560000  68.0100000  70.8770000  54.2060000  65.3170000  79.6870000
  53.2220000  65.0970000  77.9230000  56.4060000  66.3580000  79.4760000
  58.6630000  68.4920000  71.4610000  59.6710000  68.7190000  73.1720000
  57.3340000  68.0750000  69.9360000  53.2100000  64.7310000  80.5500000
  55.4300000  65.7930000  80.2860000  57.2080000  66.6750000  79.8770000
  59.3310000  68.8840000  70.9120000  53.4080000  64.6340000  81.8860000
  52.4000000  64.4070000  80.1750000  55.5940000  65.6670000  81.7090000
  54.6150000  65.1160000  82.4710000  52.7390000  64.2420000  82.4350000
  56.3940000  65.9740000  82.1210000  54.7360000  65.0510000  83.4110000
  53.8160000  53.5410000  19.0350000  53.6590000  53.6610000  17.6430000
  52.8350000  52.9840000  19.8660000  55.0470000  54.0290000  19.6390000
  52.8580000  53.3430000  17.2430000  54.6350000  54.2260000  16.8340000
  52.0210000  52.6670000  19.4930000  53.0140000  52.8820000  21.2530000
  56.0390000  54.6010000  18.8070000  55.2260000  53.9270000  21.0270000
  55.8600000  54.7020000  17.4320000  54.4720000  54.3510000  15.4110000
  52.0220000  52.3100000  22.0850000  54.2450000  53.3700000  21.8580000
  56.8440000  54.9220000  19.1970000  56.0400000  54.2440000  21.3990000
  56.8560000  55.2880000  16.5690000  53.6720000  54.0450000  14.9990000
  55.4500000  54.9020000  14.6490000  52.2010000  52.2090000  23.4600000
  51.2170000  51.9890000  21.6960000  54.4010000  53.2510000  23.2490000
  56.6580000  55.3850000  15.2340000  57.6660000  55.6120000  16.9450000
  55.3290000  54.9670000  13.7090000  51.2050000  51.6230000  24.3230000
  53.4250000  52.6850000  24.0590000  55.2030000  53.5680000  23.6500000
  57.3260000  55.7770000  14.6840000  51.4030000  51.5260000  25.6590000
  50.3950000  51.2990000  23.9480000  53.5890000  52.5600000  25.4810000
  52.6100000  52.0090000  26.2430000  50.7340000  51.1350000  26.2080000
  54.3890000  52.8660000  25.8930000  52.7310000  51.9440000  27.1840000
  54.8180000  60.0950000  47.1490000  54.6620000  60.2140000  45.7570000
  53.8370000  59.5380000  47.9790000  56.0490000  60.5830000  47.7530000
  53.8610000  59.8970000  45.3560000  55.6380000  60.7800000  44.9470000
  53.0240000  59.2200000  47.6070000  54.0170000  59.4360000  49.3670000
  57.0410000  61.1540000  46.9210000  56.2290000  60.4810000  49.1400000
  56.8620000  61.2560000  45.5460000  55.4740000  60.9050000  43.5250000
  53.0250000  58.8640000  50.1990000  55.2470000  59.9240000  49.9710000
  57.8460000  61.4760000  47.3100000  57.0420000  60.7980000  49.5130000
  57.8580000  61.8410000  44.6830000  54.6740000  60.5980000  43.1130000
  56.4530000  61.4560000  42.7630000  53.2030000  58.7630000  51.5740000
  52.2190000  58.5430000  49.8100000  55.4040000  59.8040000  51.3630000
  57.6600000  61.9390000  43.3480000  58.6680000  62.1650000  45.0580000
  56.3320000  61.5210000  41.8220000  52.2070000  58.1770000  52.4370000
  54.4280000  59.2390000  52.1730000  56.2050000  60.1220000  51.7630000
  58.3290000  62.3300000  42.7980000  52.4050000  58.0800000  53.7720000
  51.3980000  57.8530000  52.0610000  54.5920000  59.1140000  53.5950000
  53.6130000  58.5630000  54.3570000  51.7370000  57.6880000  54.3220000
  55.3920000  59.4200000  54.0070000  53.7340000  58.4980000  55.2970000
  55.7490000  63.2000000  64.0280000  55.9050000  63.0810000  65.4200000
  56.7300000  63.7580000  63.1970000  54.5180000  62.7120000  63.4240000
  56.7060000  63.3990000  65.8200000  54.9290000  62.5160000  66.2290000
  57.5430000  64.0750000  63.5700000  56.5500000  63.8600000  61.8100000
  53.5260000  62.1410000  64.2560000  54.3380000  62.8140000  62.0360000
  53.7050000  62.0400000  65.6300000  55.0930000  62.3900000  67.6520000
  57.5420000  64.4310000  60.9780000  55.3200000  63.3720000  61.2050000
  52.7210000  61.8200000  63.8660000  53.5250000  62.4970000  61.6640000
  52.7090000  61.4540000  66.4940000  55.8930000  62.6970000  68.0640000
  54.1140000  61.8390000  68.4140000  57.3640000  64.5320000  59.6030000
  58.3480000  64.7520000  61.3670000  55.1630000  63.4910000  59.8140000
  52.9070000  61.3570000  67.8290000  51.8990000  61.1300000  66.1180000
  54.2350000  61.7740000  69.3540000  58.3600000  65.1180000  58.7400000
  56.1390000  64.0560000  59.0040000  54.3620000  63.1740000  59.4130000
  52.2380000  60.9650000  68.3790000  58.1620000  65.2150000  57.4040000
  59.1690000  65.4420000  59.1150000  55.9750000  64.1820000  57.5820000
  56.9540000  64.7330000  56.8200000  58.8300000  65.6070000  56.8550000
  55.1750000  63.8750000  57.1700000  56.8330000  64.7980000  55.8790000
  54.7460000  56.6470000  35.9140000  54.9030000  56.5270000  37.3060000
  55.7270000  57.2040000  35.0840000  53.5150000  56.1590000  35.3100000
  55.7040000  56.8450000  37.7070000  53.9270000  55.9620000  38.1160000
  56.5410000  57.5210000  35.4560000  55.5480000  57.3060000  33.6960000
  52.5230000  55.5870000  36.1420000  53.3360000  56.2610000  33.9230000
  52.7020000  55.4860000  37.5170000  54.0900000  55.8370000  39.5380000
  56.5400000  57.8780000  32.8640000  54.3170000  56.8180000  33.0920000
  51.7180000  55.2660000  35.7530000  52.5220000  55.9440000  33.5500000
  51.7060000  54.9000000  38.3800000  54.8900000  56.1430000  39.9500000
  53.1110000  55.2860000  40.3000000  56.3610000  57.9790000  31.4890000
  57.3450000  58.1990000  33.2530000  54.1610000  56.9370000  31.7000000
  51.9040000  54.8030000  39.7150000  50.8960000  54.5760000  38.0050000
  53.2330000  55.2210000  41.2410000  57.3570000  58.5650000  30.6260000
  55.1370000  57.5030000  30.8900000  53.3590000  56.6200000  31.3000000
  51.2360000  54.4110000  40.2650000  57.1590000  58.6620000  29.2910000
  58.1670000  58.8890000  31.0020000  54.9730000  57.6280000  29.4680000
  55.9520000  58.1790000  28.7060000  57.8280000  59.0530000  28.7410000
  54.1730000  57.3220000  29.0560000  55.8310000  58.2440000  27.7660000
  56.7510000  69.7540000  92.1420000  56.9080000  69.6350000  93.5330000
  57.7320000  70.3110000  91.3110000  55.5200000  69.2660000  91.5370000
  57.7090000  69.9520000  93.9340000  55.9320000  69.0690000  94.3430000
  58.5460000  70.6290000  91.6830000  57.5530000  70.4130000  89.9230000
  54.5280000  68.6950000  92.3690000  55.3410000  69.3680000  90.1500000
  54.7070000  68.5930000  93.7440000  56.0950000  68.9440000  95.7650000
  58.5450000  70.9850000  89.0910000  56.3220000  69.9250000  89.3190000
  53.7230000  68.3730000  91.9800000  54.5270000  69.0510000  89.7770000
  53.7110000  68.0080000  94.6070000  56.8950000  69.2510000  96.1770000
  55.1170000  68.3930000  96.5270000  58.3660000  71.0860000  87.7170000
  59.3500000  71.3060000  89.4810000  56.1660000  70.0450000  87.9270000
  53.9090000  67.9100000  95.9430000  52.9010000  67.6840000  94.2320000
  55.2380000  68.3280000  97.4680000  59.3620000  71.6720000  86.8530000
  57.1420000  70.6100000  87.1180000  55.3640000  69.7270000  87.5270000
  53.2410000  67.5190000  96.4920000  59.1640000  71.7690000  85.5180000
  60.1720000  71.9960000  87.2290000  56.9780000  70.7350000  85.6950000
  57.9570000  71.2860000  84.9330000  59.8330000  72.1610000  84.9680000
  56.1780000  70.4290000  85.2830000  57.8360000  71.3510000  83.9930000
  54.5520000  61.2200000  19.0350000  54.3960000  61.3390000  17.6430000
  53.5710000  60.6630000  19.8660000  55.7830000  61.7080000  19.6390000
  53.5940000  61.0220000  17.2430000  55.3710000  61.9050000  16.8340000
  52.7570000  60.3450000  19.4930000  53.7500000  60.5610000  21.2530000
  56.7750000  62.2790000  18.8070000  55.9620000  61.6060000  21.0270000
  56.5960000  62.3800000  17.4320000  55.2080000  62.0300000  15.4110000
  52.7580000  59.9890000  22.0850000  54.9810000  61.0490000  21.8580000
  57.5800000  62.6000000  19.1970000  56.7760000  61.9230000  21.3990000
  57.5920000  62.9660000  16.5690000  54.4080000  61.7230000  14.9990000
  56.1870000  62.5810000  14.6490000  52.9370000  59.8880000  23.4600000
  51.9530000  59.6680000  21.6960000  55.1370000  60.9290000  23.2490000
  57.3940000  63.0640000  15.2340000  58.4020000  63.2900000  16.9450000
  56.0650000  62.6460000  13.7090000  51.9410000  59.3020000  24.3230000
  54.1610000  60.3640000  24.0590000  55.9390000  61.2470000  23.6500000
  58.0620000  63.4550000  14.6840000  52.1390000  59.2050000  25.6590000
  51.1310000  58.9780000  23.9480000  54.3250000  60.2390000  25.4810000
  53.3460000  59.6870000  26.2430000  51.4700000  58.8130000  26.2080000
  55.1250000  60.5450000  25.8930000  53.4670000  59.6230000  27.1840000
  55.4820000  64.3250000  35.9140000  55.6390000  64.2060000  37.3060000
  56.4630000  64.8830000  35.0840000  54.2510000  63.8370000  35.3100000
  56.4400000  64.5240000  37.7070000  54.6630000  63.6410000  38.1160000
  57.2770000  65.2000000  35.4560000  56.2840000  64.9850000  33.6960000
  53.2600000  63.2660000  36.1420000  54.0720000  63.9390000  33.9230000
  53.4380000  63.1650000  37.5170000  54.8270000  63.5150000  39.5380000
  57.2760000  65.5560000  32.8640000  55.0530000  64.4970000  33.0920000
  52.4540000  62.9450000  35.7530000  53.2590000  63.6220000  33.5500000
  52.4420000  62.5790000  38.3800000  55.6260000  63.8220000  39.9500000
  53.8480000  62.9640000  40.3000000  57.0970000  65.6570000  31.4890000
  58.0810000  65.8770000  33.2530000  54.8970000  64.6160000  31.7000000
  52.6400000  62.4820000  39.7150000  51.6320000  62.2550000  38.0050000
  53.9690000  62.8990000  41.2410000  58.0930000  66.2430000  30.6260000
  55.8730000  65.1810000  30.8900000  54.0950000  64.2980000  31.3000000
  51.9720000  62.0900000  40.2650000  57.8950000  66.3400000  29.2910000
  58.9030000  66.5670000  31.0020000  55.7090000  65.3070000  29.4680000
  56.6880000  65.8580000  28.7060000  58.5640000  66.7320000  28.7410000
  54.9090000  65.0000000  29.0560000  56.5670000  65.9230000  27.7660000
  55.5540000  67.7730000  47.1490000  55.3980000  67.8930000  45.7570000
  54.5730000  67.2160000  47.9790000  56.7850000  68.2610000  47.7530000
  54.5970000  67.5750000  45.3560000  56.3740000  68.4580000  44.9470000
  53.7600000  66.8990000  47.6070000  54.7530000  67.1140000  49.3670000
  57.7770000  68.8330000  46.9210000  56.9650000  68.1600000  49.1400000
  57.5990000  68.9340000  45.5460000  56.2100000  68.5830000  43.5250000
  53.7610000  66.5430000  50.1990000  55.9840000  67.6020000  49.9710000
  58.5830000  69.1540000  47.3100000  57.7780000  68.4770000  49.5130000
  58.5950000  69.5200000  44.6830000  55.4100000  68.2770000  43.1130000
  57.1890000  69.1350000  42.7630000  53.9390000  66.4420000  51.5740000
  52.9550000  66.2220000  49.8100000  56.1400000  67.4830000  51.3630000
  58.3970000  69.6170000  43.3480000  59.4040000  69.8440000  45.0580000
  57.0680000  69.1990000  41.8220000  52.9430000  65.8560000  52.4370000
  55.1640000  66.9170000  52.1730000  56.9410000  67.8000000  51.7630000
  59.0650000  70.0090000  42.7980000  53.1410000  65.7590000  53.7720000
  52.1340000  65.5320000  52.0610000  55.3280000  66.7920000  53.5950000
  54.3490000  66.2410000  54.3570000  52.4730000  65.3670000  54.3220000
  56.1280000  67.0990000  54.0070000  54.4700000  66.1760000  55.2970000
  57.0580000  77.6040000  89.3190000  56.9020000  77.7230000  87.9270000
  56.0770000  77.0470000  90.1500000  58.2890000  78.0920000  89.9230000
  56.1000000  77.4060000  87.5270000  57.8780000  78.2890000  87.1180000
  55.2640000  76.7290000  89.7770000  56.2560000  76.9450000  91.5370000
  59.2810000  78.6640000  89.0910000  58.4680000  77.9900000  91.3110000
  59.1020000  78.7650000  87.7170000  57.7140000  78.4140000  85.6950000
  55.2650000  76.3730000  92.3690000  57.4870000  77.4330000  92.1420000
  60.0860000  78.9850000  89.4810000  59.2820000  78.3070000  91.6830000
  60.0980000  79.3500000  86.8530000  56.9140000  78.1080000  85.2830000
  58.6930000  78.9650000  84.9330000  55.4430000  76.2720000  93.7440000
  54.4590000  76.0520000  91.9800000  57.6440000  77.3130000  93.5330000
  59.9000000  79.4480000  85.5180000  60.9080000  79.6740000  87.2290000
  58.5720000  79.0300000  83.9930000  54.4470000  75.6860000  94.6070000
  56.6680000  76.7480000  94.3430000  58.4450000  77.6310000  93.9340000
  60.5690000  79.8390000  84.9680000  54.6450000  75.5890000  95.9430000
  53.6370000  75.3620000  94.2320000  56.8320000  76.6230000  95.7650000
  55.8530000  76.0720000  96.5270000  53.9770000  75.1970000  96.4920000
  57.6310000  76.9290000  96.1770000  55.9740000  76.0070000  97.4680000
  56.0560000  71.0500000  61.2050000  55.8990000  71.1700000  59.8140000
  55.0750000  70.4930000  62.0360000  57.2870000  71.5380000  61.8100000
  55.0980000  70.8520000  59.4130000  56.8750000  71.7350000  59.0040000
  54.2610000  70.1760000  61.6640000  55.2540000  70.3910000  63.4240000
  58.2780000  72.1100000  60.9780000  57.4660000  71.4360000  63.1970000
  58.1000000  72.2110000  59.6030000  56.7110000  71.8600000  57.5820000
  54.2620000  69.8190000  64.2560000  56.4850000  70.8790000  64.0280000
  59.0840000  72.4310000  61.3670000  58.2790000  71.7540000  63.5700000
  59.0960000  72.7970000  58.7400000  55.9120000  71.5540000  57.1700000
  57.6900000  72.4110000  56.8200000  54.4410000  69.7180000  65.6300000
  53.4570000  69.4980000  63.8660000  56.6410000  70.7600000  65.4200000
  58.8980000  72.8940000  57.4040000  59.9060000  73.1210000  59.1150000
  57.5690000  72.4760000  55.8790000  53.4450000  69.1330000  66.4940000
  55.6650000  70.1940000  66.2290000  57.4430000  71.0770000  65.8200000
  59.5660000  73.2860000  56.8550000  53.6430000  69.0350000  67.8290000
  52.6350000  68.8090000  66.1180000  55.8290000  70.0690000  67.6520000
  54.8500000  69.5180000  68.4140000  52.9740000  68.6440000  68.3790000
  56.6290000  70.3750000  68.0640000  54.9710000  69.4530000  69.3540000
  56.5570000  74.3270000  75.2620000  56.4010000  74.4470000  73.8710000
  55.5760000  73.7700000  76.0930000  57.7880000  74.8150000  75.8670000
  55.5990000  74.1290000  73.4700000  57.3760000  75.0120000  73.0610000
  54.7620000  73.4530000  75.7200000  55.7550000  73.6680000  77.4800000
  58.7800000  75.3870000  75.0350000  57.9670000  74.7130000  77.2540000
  58.6010000  75.4880000  73.6600000  57.2130000  75.1370000  71.6380000
  54.7630000  73.0960000  78.3130000  56.9860000  74.1560000  78.0850000
  59.5850000  75.7080000  75.4240000  58.7810000  75.0300000  77.6270000
  59.5970000  76.0740000  72.7970000  56.4130000  74.8310000  71.2270000
  58.1920000  75.6880000  70.8770000  54.9420000  72.9950000  79.6870000
  53.9580000  72.7750000  77.9230000  57.1420000  74.0360000  79.4760000
  59.3990000  76.1710000  71.4610000  60.4070000  76.3980000  73.1720000
  58.0700000  75.7530000  69.9360000  53.9460000  72.4090000  80.5500000
  56.1670000  73.4710000  80.2860000  57.9440000  74.3540000  79.8770000
  60.0680000  76.5630000  70.9120000  54.1440000  72.3120000  81.8860000
  53.1360000  72.0850000  80.1750000  56.3300000  73.3460000  81.7090000
  55.3510000  72.7950000  82.4710000  53.4750000  71.9200000  82.4350000
  57.1300000  73.6520000  82.1210000  55.4730000  72.7300000  83.4110000
  55.7170000  68.7270000  21.8580000  55.8740000  68.6080000  23.2490000
  56.6980000  69.2840000  21.0270000  54.4860000  68.2390000  21.2530000
  56.6750000  68.9250000  23.6500000  54.8980000  68.0420000  24.0590000
  57.5120000  69.6020000  21.3990000  56.5190000  69.3860000  19.6390000
  53.4940000  67.6680000  22.0850000  54.3070000  68.3410000  19.8660000
  53.6730000  67.5670000  23.4600000  55.0610000  67.9170000  25.4810000
  57.5110000  69.9580000  18.8070000  55.2880000  68.8980000  19.0350000
  52.6890000  67.3460000  21.6960000  53.4930000  68.0240000  19.4930000
  52.6770000  66.9810000  24.3230000  55.8610000  68.2240000  25.8930000
  54.0820000  67.3660000  26.2430000  57.3320000  70.0590000  17.4320000
  58.3160000  70.2790000  19.1970000  55.1320000  69.0180000  17.6430000
  52.8750000  66.8830000  25.6590000  51.8670000  66.6570000  23.9480000
  54.2040000  67.3010000  27.1840000  58.3280000  70.6450000  16.5690000
  56.1080000  69.5830000  16.8340000  54.3300000  68.7000000  17.2430000
  52.2070000  66.4920000  26.2080000  58.1300000  70.7420000  15.2340000
  59.1380000  70.9690000  16.9450000  55.9440000  69.7080000  15.4110000
  56.9230000  70.2590000  14.6490000  58.7990000  71.1340000  14.6840000
  55.1440000  69.4020000  14.9990000  56.8020000  70.3240000  13.7090000
  56.2180000  72.0040000  35.9140000  56.3750000  71.8850000  37.3060000
  57.2000000  72.5610000  35.0840000  54.9880000  71.5160000  35.3100000
  57.1760000  72.2020000  37.7070000  55.3990000  71.3190000  38.1160000
  58.0130000  72.8780000  35.4560000  57.0200000  72.6630000  33.6960000
  53.9960000  70.9440000  36.1420000  54.8080000  71.6180000  33.9230000
  54.1740000  70.8430000  37.5170000  55.5630000  71.1940000  39.5380000
  58.0120000  73.2350000  32.8640000  55.7890000  72.1750000  33.0920000
  53.1900000  70.6230000  35.7530000  53.9950000  71.3010000  33.5500000
  53.1780000  70.2570000  38.3800000  56.3620000  71.5000000  39.9500000
  54.5840000  70.6430000  40.3000000  57.8330000  73.3360000  31.4890000
  58.8170000  73.5560000  33.2530000  55.6330000  72.2950000  31.7000000
  53.3760000  70.1600000  39.7150000  52.3680000  69.9330000  38.0050000
  54.7050000  70.5780000  41.2410000  58.8290000  73.9220000  30.6260000
  56.6090000  72.8600000  30.8900000  54.8320000  71.9770000  31.3000000
  52.7080000  69.7690000  40.2650000  58.6310000  74.0190000  29.2910000
  59.6390000  74.2460000  31.0020000  56.4450000  72.9850000  29.4680000
  57.4240000  73.5360000  28.7060000  59.3000000  74.4110000  28.7410000
  55.6450000  72.6790000  29.0560000  57.3030000  73.6010000  27.7660000
  56.2910000  75.4520000  47.1490000  56.1340000  75.5720000  45.7570000
  55.3090000  74.8950000  47.9790000  57.5210000  75.9400000  47.7530000
  55.3330000  75.2540000  45.3560000  57.1100000  76.1370000  44.9470000
  54.4960000  74.5780000  47.6070000  55.4890000  74.7930000  49.3670000
  58.5130000  76.5120000  46.9210000  57.7010000  75.8380000  49.1400000
  58.3350000  76.6130000  45.5460000  56.9460000  76.2620000  43.5250000
  54.4970000  74.2210000  50.1990000  56.7200000  75.2810000  49.9710000
  59.3190000  76.8330000  47.3100000  58.5140000  76.1550000  49.5130000
  59.3310000  77.1990000  44.6830000  56.1460000  75.9560000  43.1130000
  57.9250000  76.8130000  42.7630000  54.6760000  74.1200000  51.5740000
  53.6920000  73.9000000  49.8100000  56.8760000  75.1610000  51.3630000
  59.1330000  77.2960000  43.3480000  60.1400000  77.5230000  45.0580000
  57.8040000  76.8780000  41.8220000  53.6800000  73.5340000  52.4370000
  55.9000000  74.5960000  52.1730000  57.6770000  75.4790000  51.7630000
  59.8010000  77.6870000  42.7980000  53.8780000  73.4370000  53.7720000
  52.8700000  73.2100000  52.0610000  56.0640000  74.4710000  53.5950000
  55.0850000  73.9200000  54.3570000  53.2090000  73.0450000  54.3220000
  56.8640000  74.7770000  54.0070000  55.2060000  73.8550000  55.2970000
  57.2930000  82.0060000  75.2620000  57.1370000  82.1250000  73.8710000
  56.3120000  81.4480000  76.0930000  58.5240000  82.4940000  75.8670000
  56.3350000  81.8080000  73.4700000  58.1130000  82.6900000  73.0610000
  55.4980000  81.1310000  75.7200000  56.4910000  81.3460000  77.4800000
  59.5160000  83.0650000  75.0350000  58.7030000  82.3920000  77.2540000
  59.3370000  83.1660000  73.6600000  57.9490000  82.8160000  71.6380000
  55.4990000  80.7750000  78.3130000  57.7220000  81.8340000  78.0850000
  60.3210000  83.3860000  75.4240000  59.5170000  82.7090000  77.6270000
  60.3330000  83.7520000  72.7970000  57.1490000  82.5090000  71.2270000
  58.9280000  83.3670000  70.8770000  55.6780000  80.6740000  79.6870000
  54.6940000  80.4540000  77.9230000  57.8790000  81.7150000  79.4760000
  60.1350000  83.8490000  71.4610000  61.1430000  84.0760000  73.1720000
  58.8070000  83.4320000  69.9360000  54.6820000  80.0880000  80.5500000
  56.9030000  81.1500000  80.2860000  58.6800000  82.0330000  79.8770000
  60.8040000  84.2410000  70.9120000  54.8800000  79.9910000  81.8860000
  53.8720000  79.7640000  80.1750000  57.0660000  81.0240000  81.7090000
  56.0880000  80.4730000  82.4710000  54.2120000  79.5990000  82.4350000
  57.8660000  81.3310000  82.1210000  56.2090000  80.4090000  83.4110000
  58.2230000  85.1110000  92.1420000  58.3800000  84.9920000  93.5330000
  59.2050000  85.6690000  91.3110000  56.9930000  84.6230000  91.5370000
  59.1810000  85.3090000  93.9340000  57.4040000  84.4270000  94.3430000
  60.0180000  85.9860000  91.6830000  59.0250000  85.7710000  89.9230000
  56.0010000  84.0520000  92.3690000  56.8130000  84.7250000  90.1500000
  56.1790000  83.9510000  93.7440000  57.5680000  84.3010000  95.7650000
  60.0170000  86.3420000  89.0910000  57.7940000  85.2830000  89.3190000
  55.1950000  83.7310000  91.9800000  56.0000000  84.4080000  89.7770000
  55.1830000  83.3650000  94.6070000  58.3680000  84.6080000  96.1770000
  56.5890000  83.7500000  96.5270000  59.8380000  86.4430000  87.7170000
  60.8220000  86.6630000  89.4810000  57.6380000  85.4020000  87.9270000
  55.3810000  83.2680000  95.9430000  54.3740000  83.0410000  94.2320000
  56.7100000  83.6850000  97.4680000  60.8340000  87.0290000  86.8530000
  58.6140000  85.9670000  87.1180000  56.8370000  85.0840000  87.5270000
  54.7130000  82.8760000  96.4920000  60.6360000  87.1260000  85.5180000
  61.6440000  87.3530000  87.2290000  58.4500000  86.0930000  85.6950000
  59.4290000  86.6440000  84.9330000  61.3050000  87.5180000  84.9680000
  57.6500000  85.7860000  85.2830000  59.3080000  86.7090000  83.9930000
  57.0270000  83.1310000  47.1490000  56.8700000  83.2500000  45.7570000
  56.0460000  82.5730000  47.9790000  58.2580000  83.6190000  47.7530000
  56.0690000  82.9320000  45.3560000  57.8460000  83.8150000  44.9470000
  55.2320000  82.2560000  47.6070000  56.2250000  82.4710000  49.3670000
  59.2490000  84.1900000  46.9210000  58.4370000  83.5170000  49.1400000
  59.0710000  84.2910000  45.5460000  57.6820000  83.9410000  43.5250000
  55.2330000  81.9000000  50.1990000  57.4560000  82.9590000  49.9710000
  60.0550000  84.5110000  47.3100000  59.2500000  83.8340000  49.5130000
  60.0670000  84.8770000  44.6830000  56.8830000  83.6340000  43.1130000
  58.6610000  84.4920000  42.7630000  55.4120000  81.7990000  51.5740000
  54.4280000  81.5790000  49.8100000  57.6120000  82.8400000  51.3630000
  59.8690000  84.9740000  43.3480000  60.8770000  85.2010000  45.0580000
  58.5400000  84.5570000  41.8220000  54.4160000  81.2130000  52.4370000
  56.6360000  82.2750000  52.1730000  58.4140000  83.1580000  51.7630000
  60.5370000  85.3660000  42.7980000  54.6140000  81.1160000  53.7720000
  53.6060000  80.8890000  52.0610000  56.8000000  82.1490000  53.5950000
  55.8210000  81.5980000  54.3570000  53.9450000  80.7240000  54.3220000
  57.6000000  82.4560000  54.0070000  55.9420000  81.5330000  55.2970000
  57.5280000  86.4080000  61.2050000  57.3720000  86.5270000  59.8140000
  56.5470000  85.8500000  62.0360000  58.7590000  86.8950000  61.8100000
  56.5700000  86.2090000  59.4130000  58.3470000  87.0920000  59.0040000
  55.7330000  85.5330000  61.6640000  56.7260000  85.7480000  63.4240000
  59.7510000  87.4670000  60.9780000  58.9380000  86.7940000  63.1970000
  59.5720000  87.5680000  59.6030000  58.1840000  87.2170000  57.5820000
  55.7340000  85.1770000  64.2560000  57.9570000  86.2360000  64.0280000
  60.5560000  87.7880000  61.3670000  59.7520000  87.1110000  63.5700000
  60.5680000  88.1540000  58.7400000  57.3840000  86.9110000  57.1700000
  59.1630000  87.7690000  56.8200000  55.9130000  85.0760000  65.6300000
  54.9290000  84.8560000  63.8660000  58.1130000  86.1170000  65.4200000
  60.3700000  88.2510000  57.4040000  61.3780000  88.4780000  59.1150000
  59.0410000  87.8330000  55.8790000  54.9170000  84.4900000  66.4940000
  57.1380000  85.5520000  66.2290000  58.9150000  86.4340000  65.8200000
  61.0380000  88.6430000  56.8550000  55.1150000  84.3930000  67.8290000
  54.1070000  84.1660000  66.1180000  57.3010000  85.4260000  67.6520000
  56.3220000  84.8750000  68.4140000  54.4460000  84.0010000  68.3790000
  58.1010000  85.7330000  68.0640000  56.4430000  84.8100000  69.3540000
  58.4580000  89.5130000  78.0850000  58.6150000  89.3940000  79.4760000
  59.4390000  90.0700000  77.2540000  57.2270000  89.0250000  77.4800000
  59.4160000  89.7110000  79.8770000  57.6390000  88.8280000  80.2860000
  60.2530000  90.3880000  77.6270000  59.2600000  90.1720000  75.8670000
  56.2360000  88.4540000  78.3130000  57.0480000  89.1270000  76.0930000
  56.4140000  88.3520000  79.6870000  57.8030000  88.7030000  81.7090000
  60.2520000  90.7440000  75.0350000  58.0290000  89.6840000  75.2620000
  55.4300000  88.1320000  77.9230000  56.2350000  88.8100000  75.7200000
  55.4180000  87.7670000  80.5500000  58.6020000  89.0090000  82.1210000
  56.8240000  88.1520000  82.4710000  60.0730000  90.8450000  73.6600000
  61.0570000  91.0650000  75.4240000  57.8730000  89.8040000  73.8710000
  55.6160000  87.6690000  81.8860000  54.6080000  87.4430000  80.1750000
  56.9450000  88.0870000  83.4110000  61.0690000  91.4310000  72.7970000
  58.8490000  90.3690000  73.0610000  57.0710000  89.4860000  73.4700000
  54.9480000  87.2780000  82.4350000  60.8710000  91.5280000  71.4610000
  61.8790000  91.7550000  73.1720000  58.6850000  90.4940000  71.6380000
  59.6640000  91.0450000  70.8770000  61.5400000  91.9200000  70.9120000
  57.8850000  90.1880000  71.2270000  59.5430000  91.1100000  69.9360000
  58.9600000  92.7900000  92.1420000  59.1160000  92.6700000  93.5330000
  59.9410000  93.3470000  91.3110000  57.7290000  92.3020000  91.5370000
  59.9170000  92.9880000  93.9340000  58.1400000  92.1050000  94.3430000
  60.7540000  93.6640000  91.6830000  59.7610000  93.4490000  89.9230000
  56.7370000  91.7300000  92.3690000  57.5490000  92.4040000  90.1500000
  56.9150000  91.6290000  93.7440000  58.3040000  91.9800000  95.7650000
  60.7530000  94.0210000  89.0910000  58.5300000  92.9610000  89.3190000
  55.9310000  91.4090000  91.9800000  56.7360000  92.0870000  89.7770000
  55.9190000  91.0430000  94.6070000  59.1040000  92.2860000  96.1770000
  57.3250000  91.4290000  96.5270000  60.5750000  94.1220000  87.7170000
  61.5590000  94.3420000  89.4810000  58.3740000  93.0810000  87.9270000
  56.1170000  90.9460000  95.9430000  55.1100000  90.7190000  94.2320000
  57.4460000  91.3640000  97.4680000  61.5710000  94.7080000  86.8530000
  59.3500000  93.6460000  87.1180000  57.5730000  92.7630000  87.5270000
  55.4490000  90.5540000  96.4920000  61.3730000  94.8050000  85.5180000
  62.3800000  95.0320000  87.2290000  59.1860000  93.7710000  85.6950000
  60.1650000  94.3220000  84.9330000  62.0410000  95.1970000  84.9680000
  58.3860000  93.4650000  85.2830000  60.0440000  94.3870000  83.9930000
  58.6930000  93.9150000  64.0280000  58.8500000  93.7950000  65.4200000
  59.6740000  94.4720000  63.1970000  57.4620000  93.4270000  63.4240000
  59.6510000  94.1130000  65.8200000  57.8740000  93.2300000  66.2290000
  60.4880000  94.7890000  63.5700000  59.4950000  94.5740000  61.8100000
  56.4700000  92.8550000  64.2560000  57.2830000  93.5290000  62.0360000
  56.6490000  92.7540000  65.6300000  58.0370000  93.1050000  67.6520000
  60.4870000  95.1460000  60.9780000  58.2640000  94.0860000  61.2050000
  55.6650000  92.5340000  63.8660000  56.4690000  93.2120000  61.6640000
  55.6530000  92.1680000  66.4940000  58.8370000  93.4110000  68.0640000
  57.0580000  92.5540000  68.4140000  60.3080000  95.2470000  59.6030000
  61.2920000  95.4670000  61.3670000  58.1080000  94.2060000  59.8140000
  55.8510000  92.0710000  67.8290000  54.8430000  91.8440000  66.1180000
  57.1800000  92.4890000  69.3540000  61.3040000  95.8330000  58.7400000
  59.0840000  94.7710000  59.0040000  57.3060000  93.8880000  59.4130000
  55.1830000  91.6790000  68.3790000  61.1060000  95.9300000  57.4040000
  62.1140000  96.1570000  59.1150000  58.9200000  94.8960000  57.5820000
  59.8990000  95.4470000  56.8200000  61.7750000  96.3220000  56.8550000
  58.1200000  94.5900000  57.1700000  59.7780000  95.5120000  55.8790000
  58.7650000  97.3630000  75.2620000  58.6090000  97.4820000  73.8710000
  57.7840000  96.8060000  76.0930000  59.9960000  97.8510000  75.8670000
  57.8080000  97.1650000  73.4700000  59.5850000  98.0480000  73.0610000
  56.9710000  96.4880000  75.7200000  57.9640000  96.7040000  77.4800000
  60.9880000  98.4220000  75.0350000  60.1760000  97.7490000  77.2540000
  60.8090000  98.5240000  73.6600000  59.4210000  98.1730000  71.6380000
  56.9720000  96.1320000  78.3130000  59.1940000  97.1920000  78.0850000
  61.7930000  98.7440000  75.4240000  60.9890000  98.0660000  77.6270000
  61.8050000  99.1090000  72.7970000  58.6210000  97.8670000  71.2270000
  60.4000000  98.7240000  70.8770000  57.1500000  96.0310000  79.6870000
  56.1660000  95.8110000  77.9230000  59.3510000  97.0720000  79.4760000
  61.6070000  99.2070000  71.4610000  62.6150000  99.4330000  73.1720000
  60.2790000  98.7890000  69.9360000  56.1540000  95.4450000  80.5500000
  58.3750000  96.5070000  80.2860000  60.1520000  97.3900000  79.8770000
  62.2760000  99.5980000  70.9120000  56.3520000  95.3480000  81.8860000
  55.3450000  95.1210000  80.1750000  58.5390000  96.3820000  81.7090000
  57.5600000  95.8310000  82.4710000  55.6840000  94.9560000  82.4350000
  59.3390000  96.6880000  82.1210000  57.6810000  95.7660000  83.4110000
  59.2670000 100.6400000  89.3190000  59.1100000 100.7590000  87.9270000
  58.2850000 100.0820000  90.1500000  60.4970000 101.1280000  89.9230000
  58.3090000 100.4420000  87.5270000  60.0860000 101.3240000  87.1180000
  57.4720000  99.7650000  89.7770000  58.4650000  99.9810000  91.5370000
  61.4890000 101.6990000  89.0910000  60.6770000 101.0260000  91.3110000
  61.3110000 101.8000000  87.7170000  59.9220000 101.4500000  85.6950000
  57.4730000  99.4090000  92.3690000  59.6960000 100.4680000  92.1420000
  62.2950000 102.0200000  89.4810000  61.4900000 101.3430000  91.6830000
  62.3070000 102.3860000  86.8530000  59.1220000 101.1430000  85.2830000
  60.9010000 102.0010000  84.9330000  57.6520000  99.3080000  93.7440000
  56.6680000  99.0880000  91.9800000  59.8520000 100.3490000  93.5330000
  62.1090000 102.4830000  85.5180000  63.1160000 102.7100000  87.2290000
  60.7800000 102.0660000  83.9930000  56.6560000  98.7220000  94.6070000
  58.8760000  99.7840000  94.3430000  60.6530000 100.6670000  93.9340000
  62.7770000 102.8750000  84.9680000  56.8540000  98.6250000  95.9430000
  55.8460000  98.3980000  94.2320000  59.0400000  99.6590000  95.7650000
  58.0610000  99.1070000  96.5270000  56.1850000  98.2330000  96.4920000
  59.8400000  99.9650000  96.1770000  58.1820000  99.0430000  97.4680000
  57.7630000  90.8090000  47.1490000  57.6060000  90.9290000  45.7570000
  56.7820000  90.2520000  47.9790000  58.9940000  91.2970000  47.7530000
  56.8050000  90.6110000  45.3560000  58.5820000  91.4940000  44.9470000
  55.9680000  89.9350000  47.6070000  56.9610000  90.1500000  49.3670000
  59.9860000  91.8690000  46.9210000  59.1730000  91.1950000  49.1400000
  59.8070000  91.9700000  45.5460000  58.4190000  91.6190000  43.5250000
  55.9690000  89.5780000  50.1990000  58.1920000  90.6380000  49.9710000
  60.7910000  92.1900000  47.3100000  59.9870000  91.5120000  49.5130000
  60.8030000  92.5560000  44.6830000  57.6190000  91.3130000  43.1130000
  59.3970000  92.1700000  42.7630000  56.1480000  89.4770000  51.5740000
  55.1640000  89.2570000  49.8100000  58.3480000  90.5190000  51.3630000
  60.6050000  92.6530000  43.3480000  61.6130000  92.8800000  45.0580000
  59.2760000  92.2350000  41.8220000  55.1520000  88.8920000  52.4370000
  57.3720000  89.9530000  52.1730000  59.1500000  90.8360000  51.7630000
  61.2730000  93.0450000  42.7980000  55.3500000  88.7940000  53.7720000
  54.3420000  88.5680000  52.0610000  57.5360000  89.8280000  53.5950000
  56.5570000  89.2770000  54.3570000  54.6810000  88.4030000  54.3220000
  58.3360000  90.1340000  54.0070000  56.6780000  89.2120000  55.2970000
  56.7920000  78.7290000  61.2050000  56.6350000  78.8480000  59.8140000
  55.8110000  78.1720000  62.0360000  58.0230000  79.2170000  61.8100000
  55.8340000  78.5310000  59.4130000  57.6110000  79.4140000  59.0040000
  54.9970000  77.8540000  61.6640000  55.9900000  78.0700000  63.4240000
  59.0150000  79.7880000  60.9780000  58.2020000  79.1150000  63.1970000
  58.8360000  79.8900000  59.6030000  57.4480000  79.5390000  57.5820000
  54.9980000  77.4980000  64.2560000  57.2210000  78.5580000  64.0280000
  59.8200000  80.1100000  61.3670000  59.0160000  79.4320000  63.5700000
  59.8320000  80.4750000  58.7400000  56.6480000  79.2320000  57.1700000
  58.4260000  80.0900000  56.8200000  55.1770000  77.3970000  65.6300000
  54.1930000  77.1770000  63.8660000  57.3770000  78.4380000  65.4200000
  59.6340000  80.5730000  57.4040000  60.6420000  80.7990000  59.1150000
  58.3050000  80.1550000  55.8790000  54.1810000  76.8110000  66.4940000
  56.4010000  77.8730000  66.2290000  58.1790000  78.7560000  65.8200000
  60.3020000  80.9640000  56.8550000  54.3790000  76.7140000  67.8290000
  53.3710000  76.4870000  66.1180000  56.5650000  77.7480000  67.6520000
  55.5860000  77.1970000  68.4140000  53.7100000  76.3220000  68.3790000
  57.3650000  78.0540000  68.0640000  55.7070000  77.1320000  69.3540000
  61.7030000  93.8610000  49.7840000  61.8730000  93.1840000  51.0090000
  62.6780000  93.8560000  48.7810000  60.4580000  94.5900000  49.5520000
  62.6740000  92.6970000  51.1600000  60.9000000  93.2110000  51.9980000
  63.4920000  93.3830000  48.9110000  62.5080000  94.5360000  47.5670000
  59.4740000  94.5950000  50.5710000  60.2880000  95.2700000  48.3390000
  59.6700000  93.9360000  51.7720000  61.0720000  92.5520000  53.2520000
  63.4920000  94.5310000  46.5480000  61.2640000  95.2650000  47.3360000
  58.6600000  95.0630000  50.4270000  59.4740000  95.7430000  48.2080000
  58.6850000  93.9530000  52.8090000  61.8750000  92.0700000  53.4180000
  60.1150000  92.5950000  54.2110000  63.2960000  95.1900000  45.3480000
  64.3060000  94.0630000  46.6930000  61.0930000  95.9420000  46.1110000
  58.8970000  93.3090000  53.9820000  57.8710000  94.4210000  52.6730000
  60.2530000  92.1490000  55.0390000  64.2810000  95.1730000  44.3110000
  62.0660000  95.9140000  45.1220000  60.2920000  96.4290000  45.9590000
  58.2300000  93.3320000  54.6580000  64.0690000  95.8170000  43.1380000
  65.0950000  94.7040000  44.4470000  61.8940000  96.5740000  43.8680000
  62.8520000  96.5310000  42.9090000  64.7360000  95.7940000  42.4620000
  61.0910000  97.0560000  43.7020000  62.7130000  96.9760000  42.0810000
  60.7000000  87.3070000  21.6710000  60.8700000  86.6300000  22.8950000
  61.6760000  87.3020000  20.6670000  59.4560000  88.0360000  21.4390000
  61.6720000  86.1430000  23.0470000  59.8980000  86.6580000  23.8850000
  62.4890000  86.8300000  20.7980000  61.5050000  87.9820000  19.4540000
  58.4720000  88.0410000  22.4580000  59.2850000  88.7160000  20.2260000
  58.6670000  87.3820000  23.6580000  60.0700000  85.9980000  25.1380000
  62.4900000  87.9770000  18.4350000  60.2610000  88.7110000  19.2220000
  57.6570000  88.5090000  22.3130000  58.4720000  89.1890000  20.0950000
  57.6830000  87.3990000  24.6960000  60.8720000  85.5170000  25.3040000
  59.1120000  86.0410000  26.0970000  62.2940000  88.6370000  17.2340000
  63.3040000  87.5100000  18.5800000  60.0910000  89.3880000  17.9980000
  57.8940000  86.7550000  25.8680000  56.8680000  87.8680000  24.5590000
  59.2500000  85.5960000  26.9250000  63.2780000  88.6200000  16.1970000
  61.0630000  89.3610000  17.0080000  59.2890000  89.8760000  17.8460000
  57.2280000  86.7790000  26.5440000  63.0670000  89.2630000  15.0250000
  64.0930000  88.1510000  16.3330000  60.8910000  90.0210000  15.7540000
  61.8490000  89.9780000  14.7950000  63.7330000  89.2400000  14.3480000
  60.0890000  90.5020000  15.5880000  61.7110000  90.4230000  13.9670000
  62.2660000 101.8190000  75.4490000  62.0960000 102.4950000  74.2250000
  61.2900000 101.8240000  76.4530000  63.5100000 101.0900000  75.6810000
  61.2940000 102.9830000  74.0730000  63.0680000 102.4680000  73.2350000
  60.4770000 102.2960000  76.3220000  61.4610000 101.1440000  77.6660000
  64.4950000 101.0850000  74.6620000  63.6810000 100.4090000  76.8940000
  64.2990000 101.7440000  73.4620000  62.8960000 103.1280000  71.9810000
  60.4770000 101.1490000  78.6850000  62.7050000 100.4150000  77.8980000
  65.3090000 100.6170000  74.8070000  64.4940000  99.9370000  77.0250000
  65.2830000 101.7270000  72.4240000  62.0940000 103.6090000  71.8150000
  63.8540000 103.0850000  71.0230000  60.6720000 100.4890000  79.8860000
  59.6620000 101.6160000  78.5400000  62.8750000  99.7380000  79.1220000
  65.0720000 102.3710000  71.2520000  66.0980000 101.2580000  72.5610000
  63.7160000 103.5300000  70.1950000  59.6880000 100.5060000  80.9230000
  61.9030000  99.7650000  80.1120000  63.6770000  99.2500000  79.2740000
  65.7380000 102.3470000  70.5760000  59.8990000  99.8630000  82.0950000
  58.8730000 100.9750000  80.7870000  62.0750000  99.1050000  81.3660000
  61.1170000  99.1480000  82.3240000  59.2330000  99.8860000  82.7710000
  62.8770000  98.6240000  81.5320000  61.2550000  98.7030000  83.1520000
  61.2010000  90.5840000  35.7270000  61.3720000  89.9070000  36.9520000
  62.1770000  90.5790000  34.7240000  59.9570000  91.3130000  35.4960000
  62.1730000  89.4200000  37.1040000  60.3990000  89.9350000  37.9410000
  62.9910000  90.1060000  34.8550000  62.0060000  91.2590000  33.5110000
  58.9730000  91.3180000  36.5150000  59.7870000  91.9930000  34.2820000
  59.1680000  90.6590000  37.7150000  60.5710000  89.2750000  39.1950000
  62.9910000  91.2540000  32.4920000  60.7620000  91.9880000  33.2790000
  58.1580000  91.7860000  36.3700000  58.9730000  92.4660000  34.1520000
  58.1840000  90.6760000  38.7520000  61.3740000  88.7940000  39.3610000
  59.6130000  89.3180000  40.1540000  62.7950000  91.9130000  31.2910000
  63.8050000  90.7860000  32.6360000  60.5920000  92.6650000  32.0540000
  58.3950000  90.0320000  39.9250000  57.3690000  91.1450000  38.6160000
  59.7520000  88.8730000  40.9820000  63.7790000  91.8960000  30.2540000
  61.5640000  92.6380000  31.0650000  59.7910000  93.1520000  31.9030000
  57.7290000  90.0550000  40.6010000  63.5680000  92.5400000  29.0810000
  64.5940000  91.4280000  30.3900000  61.3930000  93.2980000  29.8110000
  62.3500000  93.2540000  28.8520000  64.2350000  92.5170000  28.4050000
  60.5900000  93.7790000  29.6450000  62.2120000  93.7000000  28.0240000
  59.7600000  85.4340000   5.1650000  59.5890000  86.1110000   3.9410000
  58.7840000  85.4400000   6.1690000  61.0040000  84.7050000   5.3970000
  58.7880000  86.5990000   3.7890000  60.5620000  86.0840000   2.9510000
  57.9700000  85.9120000   6.0380000  58.9550000  84.7600000   7.3820000
  61.9880000  84.7000000   4.3780000  61.1740000  84.0250000   6.6100000
  61.7930000  85.3600000   3.1770000  60.3900000  86.7440000   1.6970000
  57.9700000  84.7640000   8.4010000  60.1990000  84.0300000   7.6140000
  62.8030000  84.2330000   4.5230000  61.9880000  83.5530000   6.7410000
  62.7770000  85.3430000   2.1400000  59.5880000  87.2250000   1.5310000
  61.3480000  86.7010000   0.7390000  58.1660000  84.1050000   9.6010000
  57.1560000  85.2320000   8.2560000  60.3690000  83.3540000   8.8380000
  62.5660000  85.9860000   0.9680000  63.5920000  84.8740000   2.2760000
  61.2090000  87.1460000  -0.0890000  57.1820000  84.1220000  10.6390000
  59.3970000  83.3810000   9.8280000  61.1700000  82.8660000   8.9900000
  63.2320000  85.9630000   0.2920000  57.3930000  83.4780000  11.8110000
  56.3670000  84.5910000  10.5020000  59.5680000  82.7210000  11.0820000
  58.6110000  82.7640000  12.0400000  56.7260000  83.5020000  12.4870000
  60.3710000  82.2400000  11.2470000  58.7490000  82.3190000  12.8680000
  61.7650000  98.5420000  61.3920000  61.5940000  99.2190000  60.1680000
  60.7890000  98.5470000  62.3960000  63.0090000  97.8130000  61.6240000
  60.7930000  99.7060000  60.0160000  62.5670000  99.1910000  59.1780000
  59.9750000  99.0190000  62.2650000  60.9600000  97.8670000  63.6090000
  63.9930000  97.8080000  60.6050000  63.1800000  97.1330000  62.8370000
  63.7980000  98.4670000  59.4050000  62.3950000  99.8510000  57.9250000
  59.9750000  97.8720000  64.6280000  62.2040000  97.1380000  63.8410000
  64.8080000  97.3400000  60.7500000  63.9930000  96.6600000  62.9680000
  64.7820000  98.4500000  58.3670000  61.5930000 100.3320000  57.7590000
  63.3530000  99.8080000  56.9660000  60.1710000  97.2130000  65.8290000
  59.1610000  98.3390000  64.4830000  62.3740000  96.4610000  65.0650000
  64.5710000  99.0940000  57.1950000  65.5970000  97.9810000  58.5040000
  63.2140000 100.2530000  56.1380000  59.1870000  97.2290000  66.8660000
  61.4020000  96.4880000  66.0550000  63.1750000  95.9730000  65.2170000
  65.2370000  99.0700000  56.5190000  59.3980000  96.5860000  68.0380000
  58.3720000  97.6980000  66.7300000  61.5730000  95.8280000  67.3090000
  60.6160000  95.8710000  68.2680000  58.7310000  96.6090000  68.7150000
  62.3760000  95.3470000  67.4750000  60.7540000  95.4260000  69.0960000
  63.2060000 103.6910000  91.9550000  63.3770000 103.0150000  93.1790000
  64.1820000 103.6860000  90.9510000  61.9620000 104.4210000  91.7230000
  64.1780000 102.5270000  93.3310000  62.4040000 103.0420000  94.1690000
  64.9960000 103.2140000  91.0820000  64.0110000 104.3660000  89.7380000
  60.9780000 104.4250000  92.7420000  61.7920000 105.1010000  90.5100000
  61.1730000 103.7660000  93.9420000  62.5760000 102.3820000  95.4230000
  64.9960000 104.3610000  88.7190000  62.7670000 105.0950000  89.5060000
  60.1640000 104.8930000  92.5970000  60.9780000 105.5730000  90.3790000
  60.1890000 103.7830000  94.9800000  63.3790000 101.9010000  95.5880000
  61.6180000 102.4250000  96.3810000  64.8000000 105.0210000  87.5180000
  65.8100000 103.8940000  88.8640000  62.5970000 105.7720000  88.2820000
  60.4000000 103.1390000  96.1520000  59.3750000 104.2520000  94.8430000
  61.7570000 101.9800000  97.2090000  65.7840000 105.0040000  86.4810000
  63.5700000 105.7450000  87.2920000  61.7960000 106.2600000  88.1300000
  59.7340000 103.1630000  96.8280000  65.5730000 105.6470000  85.3090000
  66.5990000 104.5350000  86.6170000  63.3980000 106.4050000  86.0380000
  64.3550000 106.3620000  85.0800000  66.2400000 105.6240000  84.6320000
  62.5950000 106.8860000  85.8720000  64.2170000 106.8070000  84.2520000
  52.9000000  11.9250000  19.2220000  52.7290000  12.6020000  17.9980000
  51.9240000  11.9310000  20.2260000  54.1440000  11.1960000  19.4540000
  51.9280000  13.0900000  17.8460000  53.7020000  12.5750000  17.0080000
  51.1100000  12.4030000  20.0950000  52.0950000  11.2500000  21.4390000
  55.1280000  11.1910000  18.4350000  54.3150000  10.5160000  20.6670000
  54.9330000  11.8510000  17.2340000  53.5300000  13.2350000  15.7540000
  51.1100000  11.2550000  22.4580000  53.3390000  10.5210000  21.6710000
  55.9430000  10.7240000  18.5800000  55.1280000  10.0440000  20.7980000
  55.9170000  11.8340000  16.1970000  52.7280000  13.7160000  15.5880000
  54.4880000  13.1920000  14.7950000  51.3060000  10.5960000  23.6580000
  50.2960000  11.7230000  22.3130000  53.5090000   9.8450000  22.8950000
  55.7060000  12.4770000  15.0250000  56.7320000  11.3650000  16.3330000
  54.3490000  13.6370000  13.9670000  50.3220000  10.6130000  24.6960000
  52.5370000   9.8720000  23.8850000  54.3100000   9.3570000  23.0470000
  56.3720000  12.4540000  14.3480000  50.5330000   9.9690000  25.8680000
  49.5070000  11.0820000  24.5590000  52.7080000   9.2120000  25.1380000
  51.7510000   9.2550000  26.0970000  49.8660000   9.9930000  26.5440000
  53.5110000   8.7310000  25.3040000  51.8890000   8.8100000  26.9250000
  53.8400000  13.7980000  35.7270000  54.0100000  13.1210000  36.9520000
  54.8160000  13.7930000  34.7240000  52.5960000  14.5270000  35.4960000
  54.8120000  12.6340000  37.1040000  53.0380000  13.1490000  37.9410000
  55.6290000  13.3200000  34.8550000  54.6450000  14.4730000  33.5110000
  51.6120000  14.5320000  36.5150000  52.4250000  15.2070000  34.2820000
  51.8070000  13.8730000  37.7150000  53.2100000  12.4890000  39.1950000
  55.6300000  14.4680000  32.4920000  53.4010000  15.2020000  33.2790000
  50.7970000  15.0000000  36.3700000  51.6120000  15.6800000  34.1520000
  50.8230000  13.8900000  38.7520000  54.0120000  12.0080000  39.3610000
  52.2520000  12.5320000  40.1540000  55.4340000  15.1270000  31.2910000
  56.4440000  14.0000000  32.6360000  53.2310000  15.8790000  32.0540000
  51.0340000  13.2460000  39.9250000  50.0080000  14.3590000  38.6160000
  52.3900000  12.0870000  40.9820000  56.4180000  15.1110000  30.2540000
  54.2030000  15.8520000  31.0650000  52.4300000  16.3660000  31.9030000
  50.3680000  13.2690000  40.6010000  56.2070000  15.7540000  29.0810000
  57.2330000  14.6420000  30.3900000  54.0310000  16.5120000  29.8110000
  54.9890000  16.4690000  28.8520000  56.8740000  15.7310000  28.4050000
  53.2290000  16.9930000  29.6450000  54.8510000  16.9140000  28.0240000
  52.3990000   8.6490000   5.1650000  52.2280000   9.3250000   3.9410000
  51.4230000   8.6540000   6.1690000  53.6430000   7.9190000   5.3970000
  51.4270000   9.8130000   3.7890000  53.2010000   9.2980000   2.9510000
  50.6090000   9.1260000   6.0380000  51.5930000   7.9740000   7.3820000
  54.6270000   7.9140000   4.3780000  53.8130000   7.2390000   6.6100000
  54.4310000   8.5740000   3.1770000  53.0290000   9.9580000   1.6970000
  50.6090000   7.9780000   8.4010000  52.8380000   7.2440000   7.6140000
  55.4410000   7.4470000   4.5230000  54.6270000   6.7670000   6.7410000
  55.4160000   8.5570000   2.1400000  52.2260000  10.4390000   1.5310000
  53.9870000   9.9150000   0.7390000  50.8050000   7.3190000   9.6010000
  49.7950000   8.4460000   8.2560000  53.0080000   6.5680000   8.8380000
  55.2040000   9.2000000   0.9680000  56.2300000   8.0880000   2.2760000
  53.8480000  10.3600000  -0.0890000  49.8200000   7.3360000  10.6390000
  52.0350000   6.5950000   9.8280000  53.8090000   6.0800000   8.9900000
  55.8710000   9.1770000   0.2920000  50.0320000   6.6930000  11.8110000
  49.0060000   7.8050000  10.5020000  52.2070000   5.9350000  11.0820000
  51.2500000   5.9780000  12.0400000  49.3650000   6.7160000  12.4870000
  53.0100000   5.4540000  11.2470000  51.3880000   5.5330000  12.8680000
  55.4060000  28.3100000  89.5060000  55.2360000  28.9860000  88.2820000
  54.4300000  28.3150000  90.5100000  56.6500000  27.5800000  89.7380000
  54.4350000  29.4740000  88.1300000  56.2080000  28.9590000  87.2920000
  53.6170000  28.7870000  90.3790000  54.6010000  27.6350000  91.7230000
  57.6350000  27.5750000  88.7190000  56.8210000  26.9000000  90.9510000
  57.4390000  28.2350000  87.5180000  56.0370000  29.6190000  86.0380000
  53.6170000  27.6390000  92.7420000  55.8450000  26.9050000  91.9550000
  58.4490000  27.1080000  88.8640000  57.6350000  26.4280000  91.0820000
  58.4230000  28.2180000  86.4810000  55.2340000  30.1000000  85.8720000
  56.9940000  29.5760000  85.0800000  53.8120000  26.9800000  93.9420000
  52.8020000  28.1070000  92.5970000  56.0160000  26.2290000  93.1790000
  58.2120000  28.8610000  85.3090000  59.2380000  27.7490000  86.6170000
  56.8560000  30.0210000  84.2520000  52.8280000  26.9970000  94.9800000
  55.0430000  26.2560000  94.1690000  56.8170000  25.7410000  93.3310000
  58.8790000  28.8380000  84.6320000  53.0390000  26.3540000  96.1520000
  52.0130000  27.4660000  94.8430000  55.2150000  25.5960000  95.4230000
  54.2570000  25.6390000  96.3810000  52.3730000  26.3770000  96.8280000
  56.0170000  25.1150000  95.5880000  54.3960000  25.1940000  97.2090000
  54.9050000  25.0330000  75.4490000  54.7340000  25.7090000  74.2250000
  53.9290000  25.0380000  76.4530000  56.1490000  24.3040000  75.6810000
  53.9330000  26.1970000  74.0730000  55.7070000  25.6820000  73.2350000
  53.1160000  25.5100000  76.3220000  54.1000000  24.3580000  77.6660000
  57.1330000  24.2990000  74.6620000  56.3200000  23.6230000  76.8940000
  56.9380000  24.9580000  73.4620000  55.5350000  26.3420000  71.9810000
  53.1150000  24.3630000  78.6850000  55.3440000  23.6290000  77.8980000
  57.9480000  23.8310000  74.8070000  57.1330000  23.1510000  77.0250000
  57.9220000  24.9410000  72.4240000  54.7330000  26.8230000  71.8150000
  56.4930000  26.2990000  71.0230000  53.3110000  23.7030000  79.8860000
  52.3010000  24.8300000  78.5400000  55.5140000  22.9520000  79.1220000
  57.7110000  25.5850000  71.2520000  58.7370000  24.4720000  72.5610000
  56.3550000  26.7440000  70.1950000  52.3270000  23.7200000  80.9230000
  54.5420000  22.9790000  80.1120000  56.3150000  22.4640000  79.2740000
  58.3770000  25.5610000  70.5760000  52.5380000  23.0770000  82.0950000
  51.5120000  24.1890000  80.7870000  54.7140000  22.3190000  81.3660000
  53.7560000  22.3620000  82.3240000  51.8710000  23.1000000  82.7710000
  55.5160000  21.8380000  81.5320000  53.8940000  21.9170000  83.1520000
  53.6360000  19.6040000  19.2220000  53.4660000  20.2810000  17.9980000
  52.6600000  19.6090000  20.2260000  54.8800000  18.8750000  19.4540000
  52.6640000  20.7680000  17.8460000  54.4380000  20.2530000  17.0080000
  51.8470000  20.0820000  20.0950000  52.8310000  18.9290000  21.4390000
  55.8640000  18.8700000  18.4350000  55.0510000  18.1950000  20.6670000
  55.6690000  19.5290000  17.2340000  54.2660000  20.9130000  15.7540000
  51.8460000  18.9340000  22.4580000  54.0750000  18.2000000  21.6710000
  56.6790000  18.4020000  18.5800000  55.8640000  17.7220000  20.7980000
  56.6530000  19.5120000  16.1970000  53.4640000  21.3940000  15.5880000
  55.2240000  20.8700000  14.7950000  52.0420000  18.2750000  23.6580000
  51.0320000  19.4020000  22.3130000  54.2450000  17.5230000  22.8950000
  56.4420000  20.1560000  15.0250000  57.4680000  19.0430000  16.3330000
  55.0860000  21.3150000  13.9670000  51.0580000  18.2910000  24.6960000
  53.2730000  17.5500000  23.8850000  55.0470000  17.0360000  23.0470000
  57.1080000  20.1330000  14.3480000  51.2690000  17.6480000  25.8680000
  50.2430000  18.7600000  24.5590000  53.4450000  16.8900000  25.1380000
  52.4870000  16.9340000  26.0970000  50.6030000  17.6710000  26.5440000
  54.2470000  16.4090000  25.3040000  52.6250000  16.4880000  26.9250000
  54.5760000  21.4770000  35.7270000  54.7470000  20.8000000  36.9520000
  55.5520000  21.4720000  34.7240000  53.3320000  22.2060000  35.4960000
  55.5480000  20.3120000  37.1040000  53.7740000  20.8270000  37.9410000
  56.3660000  20.9990000  34.8550000  55.3810000  22.1520000  33.5110000
  52.3480000  22.2110000  36.5150000  53.1610000  22.8860000  34.2820000
  52.5430000  21.5510000  37.7150000  53.9460000  20.1670000  39.1950000
  56.3660000  22.1470000  32.4920000  54.1370000  22.8810000  33.2790000
  51.5330000  22.6780000  36.3700000  52.3480000  23.3580000  34.1520000
  51.5590000  21.5680000  38.7520000  54.7480000  19.6860000  39.3610000
  52.9880000  20.2100000  40.1540000  56.1700000  22.8060000  31.2910000
  57.1800000  21.6790000  32.6360000  53.9670000  23.5580000  32.0540000
  51.7700000  20.9250000  39.9250000  50.7440000  22.0370000  38.6160000
  53.1270000  19.7650000  40.9820000  57.1540000  22.7890000  30.2540000
  54.9390000  23.5300000  31.0650000  53.1660000  24.0450000  31.9030000
  51.1040000  20.9480000  40.6010000  56.9430000  23.4330000  29.0810000
  57.9690000  22.3200000  30.3900000  54.7680000  24.1900000  29.8110000
  55.7250000  24.1470000  28.8520000  57.6100000  23.4090000  28.4050000
  53.9650000  24.6710000  29.6450000  55.5870000  24.5920000  28.0240000
  56.0800000  31.3070000  77.8980000  56.2500000  30.6300000  79.1220000
  57.0560000  31.3020000  76.8940000  54.8360000  32.0360000  77.6660000
  57.0520000  30.1430000  79.2740000  55.2780000  30.6580000  80.1120000
  57.8690000  30.8300000  77.0250000  56.8850000  31.9820000  75.6810000
  53.8520000  32.0410000  78.6850000  54.6650000  32.7160000  76.4530000
  54.0470000  31.3820000  79.8860000  55.4500000  29.9980000  81.3660000
  57.8700000  31.9770000  74.6620000  55.6410000  32.7110000  75.4490000
  53.0370000  32.5090000  78.5400000  53.8520000  33.1890000  76.3220000
  53.0630000  31.3990000  80.9230000  56.2520000  29.5170000  81.5320000
  54.4920000  30.0410000  82.3240000  57.6740000  32.6360000  73.4620000
  58.6840000  31.5100000  74.8070000  55.4710000  33.3880000  74.2250000
  53.2740000  30.7550000  82.0950000  52.2480000  31.8680000  80.7870000
  54.6300000  29.5960000  83.1520000  58.6580000  32.6200000  72.4240000
  56.4430000  33.3610000  73.2350000  54.6690000  33.8760000  74.0730000
  52.6080000  30.7790000  82.7710000  58.4470000  33.2630000  71.2520000
  59.4730000  32.1510000  72.5610000  56.2710000  34.0210000  71.9810000
  57.2290000  33.9780000  71.0230000  59.1130000  33.2400000  70.5760000
  55.4690000  34.5020000  71.8150000  57.0910000  34.4230000  70.1950000
  56.1420000  35.9880000  89.5060000  55.9720000  36.6650000  88.2820000
  55.1670000  35.9930000  90.5100000  57.3860000  35.2590000  89.7380000
  55.1710000  37.1520000  88.1300000  56.9440000  36.6380000  87.2920000
  54.3530000  36.4660000  90.3790000  55.3370000  35.3130000  91.7230000
  58.3710000  35.2540000  88.7190000  57.5570000  34.5790000  90.9510000
  58.1750000  35.9130000  87.5180000  56.7730000  37.2970000  86.0380000
  54.3530000  35.3180000  92.7420000  56.5810000  34.5840000  91.9550000
  59.1850000  34.7860000  88.8640000  58.3710000  34.1060000  91.0820000
  59.1590000  35.8960000  86.4810000  55.9700000  37.7790000  85.8720000
  57.7300000  37.2540000  85.0800000  54.5480000  34.6590000  93.9420000
  53.5380000  35.7860000  92.5970000  56.7520000  33.9070000  93.1790000
  58.9480000  36.5400000  85.3090000  59.9740000  35.4280000  86.6170000
  57.5920000  37.7000000  84.2520000  53.5640000  34.6760000  94.9800000
  55.7790000  33.9340000  94.1690000  57.5530000  33.4200000  93.3310000
  59.6150000  36.5170000  84.6320000  53.7750000  34.0320000  96.1520000
  52.7490000  35.1450000  94.8430000  55.9510000  33.2750000  95.4230000
  54.9930000  33.3180000  96.3810000  53.1090000  34.0550000  96.8280000
  56.7540000  32.7930000  95.5880000  55.1320000  32.8730000  97.2090000
  54.8730000  30.5590000  33.2790000  54.7030000  31.2360000  32.0540000
  53.8980000  30.5650000  34.2820000  56.1170000  29.8300000  33.5110000
  53.9020000  31.7240000  31.9030000  55.6760000  31.2090000  31.0650000
  53.0840000  31.0370000  34.1520000  54.0680000  29.8840000  35.4960000
  57.1020000  29.8250000  32.4920000  56.2880000  29.1500000  34.7240000
  56.9060000  30.4850000  31.2910000  55.5040000  31.8690000  29.8110000
  53.0840000  29.8890000  36.5150000  55.3120000  29.1550000  35.7270000
  57.9160000  29.3580000  32.6360000  57.1020000  28.6780000  34.8550000
  57.8900000  30.4680000  30.2540000  54.7010000  32.3500000  29.6450000
  56.4610000  31.8260000  28.8520000  53.2790000  29.2300000  37.7150000
  52.2700000  30.3570000  36.3700000  55.4830000  28.4790000  36.9520000
  57.6790000  31.1110000  29.0810000  58.7050000  29.9990000  30.3900000
  56.3230000  32.2710000  28.0240000  52.2950000  29.2470000  38.7520000
  54.5100000  28.5060000  37.9410000  56.2840000  27.9910000  37.1040000
  58.3460000  31.0880000  28.4050000  52.5060000  28.6030000  39.9250000
  51.4810000  29.7160000  38.6160000  54.6820000  27.8460000  39.1950000
  53.7240000  27.8890000  40.1540000  51.8400000  28.6270000  40.6010000
  55.4850000  27.3650000  39.3610000  53.8630000  27.4440000  40.9820000
  54.8110000  25.8780000  21.6710000  54.9810000  25.2020000  22.8950000
  55.7870000  25.8730000  20.6670000  53.5670000  26.6080000  21.4390000
  55.7830000  24.7140000  23.0470000  54.0090000  25.2290000  23.8850000
  56.6000000  25.4010000  20.7980000  55.6160000  26.5530000  19.4540000
  52.5830000  26.6120000  22.4580000  53.3960000  27.2880000  20.2260000
  52.7780000  25.9530000  23.6580000  54.1810000  24.5690000  25.1380000
  56.6010000  26.5480000  18.4350000  54.3720000  27.2830000  19.2220000
  51.7680000  27.0800000  22.3130000  52.5830000  27.7600000  20.0950000
  51.7940000  25.9700000  24.6960000  54.9830000  24.0880000  25.3040000
  53.2230000  24.6120000  26.0970000  56.4050000  27.2080000  17.2340000
  57.4150000  26.0810000  18.5800000  54.2020000  27.9590000  17.9980000
  52.0050000  25.3270000  25.8680000  50.9790000  26.4390000  24.5590000
  53.3610000  24.1670000  26.9250000  57.3890000  27.1910000  16.1970000
  55.1740000  27.9320000  17.0080000  53.4000000  28.4470000  17.8460000
  51.3390000  25.3500000  26.5440000  57.1780000  27.8340000  15.0250000
  58.2040000  26.7220000  16.3330000  55.0020000  28.5920000  15.7540000
  55.9600000  28.5490000  14.7950000  57.8440000  27.8110000  14.3480000
  54.2000000  29.0730000  15.5880000  55.8220000  28.9940000  13.9670000
  55.3750000  33.8360000  47.3360000  55.2040000  34.5130000  46.1110000
  54.3990000  33.8410000  48.3390000  56.6190000  33.1070000  47.5670000
  54.4030000  35.0000000  45.9590000  56.1770000  34.4860000  45.1220000
  53.5850000  34.3140000  48.2080000  54.5690000  33.1610000  49.5520000
  57.6030000  33.1020000  46.5480000  56.7890000  32.4270000  48.7810000
  57.4070000  33.7610000  45.3480000  56.0050000  35.1460000  43.8680000
  53.5850000  33.1660000  50.5710000  55.8140000  32.4320000  49.7840000
  58.4170000  32.6340000  46.6930000  57.6030000  31.9540000  48.9110000
  58.3920000  33.7450000  44.3110000  55.2020000  35.6270000  43.7020000
  56.9630000  35.1030000  42.9090000  53.7810000  32.5070000  51.7720000
  52.7710000  33.6340000  50.4270000  55.9840000  31.7550000  51.0090000
  58.1800000  34.3880000  43.1380000  59.2060000  33.2760000  44.4470000
  56.8240000  35.5480000  42.0810000  52.7970000  32.5240000  52.8090000
  55.0110000  31.7830000  51.9980000  56.7850000  31.2680000  51.1600000
  58.8470000  34.3650000  42.4620000  53.0080000  31.8800000  53.9820000
  51.9820000  32.9930000  52.6730000  55.1830000  31.1230000  53.2520000
  54.2260000  31.1660000  54.2110000  52.3410000  31.9030000  54.6580000
  55.9860000  30.6420000  53.4180000  54.3640000  30.7210000  55.0390000
  56.8780000  43.6670000  89.5060000  56.7080000  44.3430000  88.2820000
  55.9030000  43.6720000  90.5100000  58.1230000  42.9380000  89.7380000
  55.9070000  44.8310000  88.1300000  57.6810000  44.3160000  87.2920000
  55.0890000  44.1440000  90.3790000  56.0730000  42.9920000  91.7230000
  59.1070000  42.9330000  88.7190000  58.2930000  42.2570000  90.9510000
  58.9110000  43.5920000  87.5180000  57.5090000  44.9760000  86.0380000
  55.0890000  42.9970000  92.7420000  57.3170000  42.2630000  91.9550000
  59.9210000  42.4650000  88.8640000  59.1070000  41.7850000  91.0820000
  59.8950000  43.5750000  86.4810000  56.7060000  45.4570000  85.8720000
  58.4660000  44.9330000  85.0800000  55.2850000  42.3370000  93.9420000
  54.2750000  43.4640000  92.5970000  57.4880000  41.5860000  93.1790000
  59.6840000  44.2190000  85.3090000  60.7100000  43.1060000  86.6170000
  58.3280000  45.3780000  84.2520000  54.3000000  42.3540000  94.9800000
  56.5150000  41.6130000  94.1690000  58.2890000  41.0980000  93.3310000
  60.3510000  44.1950000  84.6320000  54.5110000  41.7110000  96.1520000
  53.4860000  42.8230000  94.8430000  56.6870000  40.9530000  95.4230000
  55.7290000  40.9960000  96.3810000  53.8450000  41.7340000  96.8280000
  57.4900000  40.4720000  95.5880000  55.8680000  40.5510000  97.2090000
  55.5470000  33.5570000  21.6710000  55.7180000  32.8800000  22.8950000
  56.5230000  33.5520000  20.6670000  54.3030000  34.2860000  21.4390000
  56.5190000  32.3930000  23.0470000  54.7450000  32.9080000  23.8850000
  57.3370000  33.0790000  20.7980000  56.3520000  34.2320000  19.4540000
  53.3190000  34.2910000  22.4580000  54.1320000  34.9660000  20.2260000
  53.5140000  33.6320000  23.6580000  54.9170000  32.2480000  25.1380000
  57.3370000  34.2270000  18.4350000  55.1080000  34.9610000  19.2220000
  52.5040000  34.7590000  22.3130000  53.3190000  35.4390000  20.0950000
  52.5300000  33.6490000  24.6960000  55.7190000  31.7670000  25.3040000
  53.9590000  32.2910000  26.0970000  57.1410000  34.8860000  17.2340000
  58.1510000  33.7590000  18.5800000  54.9380000  35.6380000  17.9980000
  52.7410000  33.0050000  25.8680000  51.7150000  34.1180000  24.5590000
  54.0980000  31.8460000  26.9250000  58.1250000  34.8690000  16.1970000
  55.9100000  35.6110000  17.0080000  54.1370000  36.1250000  17.8460000
  52.0750000  33.0280000  26.5440000  57.9140000  35.5130000  15.0250000
  58.9400000  34.4010000  16.3330000  55.7390000  36.2710000  15.7540000
  56.6960000  36.2270000  14.7950000  58.5810000  35.4900000  14.3480000
  54.9360000  36.7520000  15.5880000  56.5580000  36.6730000  13.9670000
  56.0480000  36.8340000  35.7270000  56.2190000  36.1570000  36.9520000
  57.0240000  36.8290000  34.7240000  54.8040000  37.5630000  35.4960000
  57.0200000  35.6700000  37.1040000  55.2460000  36.1840000  37.9410000
  57.8380000  36.3560000  34.8550000  56.8540000  37.5090000  33.5110000
  53.8200000  37.5680000  36.5150000  54.6340000  38.2430000  34.2820000
  54.0160000  36.9090000  37.7150000  55.4180000  35.5250000  39.1950000
  57.8380000  37.5040000  32.4920000  55.6090000  38.2380000  33.2790000
  53.0060000  38.0360000  36.3700000  53.8200000  38.7160000  34.1520000
  53.0310000  36.9260000  38.7520000  56.2210000  35.0430000  39.3610000
  54.4600000  35.5680000  40.1540000  57.6420000  38.1630000  31.2910000
  58.6520000  37.0360000  32.6360000  55.4390000  38.9150000  32.0540000
  53.2430000  36.2820000  39.9250000  52.2170000  37.3940000  38.6160000
  54.5990000  35.1220000  40.9820000  58.6270000  38.1460000  30.2540000
  56.4120000  38.8870000  31.0650000  54.6380000  39.4020000  31.9030000
  52.5760000  36.3050000  40.6010000  58.4150000  38.7900000  29.0810000
  59.4410000  37.6770000  30.3900000  56.2400000  39.5470000  29.8110000
  57.1970000  39.5040000  28.8520000  59.0820000  38.7670000  28.4050000
  55.4370000  40.0290000  29.6450000  57.0590000  39.9490000  28.0240000
  56.1110000  41.5150000  47.3360000  55.9400000  42.1920000  46.1110000
  55.1350000  41.5200000  48.3390000  57.3550000  40.7860000  47.5670000
  55.1390000  42.6790000  45.9590000  56.9130000  42.1640000  45.1220000
  54.3210000  41.9920000  48.2080000  55.3060000  40.8400000  49.5520000
  58.3390000  40.7810000  46.5480000  57.5250000  40.1060000  48.7810000
  58.1440000  41.4400000  45.3480000  56.7410000  42.8240000  43.8680000
  54.3210000  40.8450000  50.5710000  56.5500000  40.1110000  49.7840000
  59.1540000  40.3130000  46.6930000  58.3390000  39.6330000  48.9110000
  59.1280000  41.4230000  44.3110000  55.9380000  43.3050000  43.7020000
  57.6990000  42.7810000  42.9090000  54.5170000  40.1860000  51.7720000
  53.5070000  41.3120000  50.4270000  56.7200000  39.4340000  51.0090000
  58.9170000  42.0670000  43.1380000  59.9430000  40.9540000  44.4470000
  57.5600000  43.2260000  42.0810000  53.5330000  40.2020000  52.8090000
  55.7480000  39.4610000  51.9980000  57.5210000  38.9460000  51.1600000
  59.5830000  42.0430000  42.4620000  53.7440000  39.5590000  53.9820000
  52.7180000  40.6710000  52.6730000  55.9190000  38.8010000  53.2520000
  54.9620000  38.8440000  54.2110000  53.0770000  39.5820000  54.6580000
  56.7220000  38.3200000  53.4180000  55.1000000  38.3990000  55.0390000
  57.1130000  48.0680000  75.4490000  56.9430000  48.7450000  74.2250000
  56.1380000  48.0740000  76.4530000  58.3570000  47.3390000  75.6810000
  56.1420000  49.2330000  74.0730000  57.9150000  48.7180000  73.2350000
  55.3240000  48.5460000  76.3220000  56.3080000  47.3940000  77.6660000
  59.3420000  47.3340000  74.6620000  58.5280000  46.6590000  76.8940000
  59.1460000  47.9940000  73.4620000  57.7440000  49.3780000  71.9810000
  55.3240000  47.3980000  78.6850000  57.5520000  46.6640000  77.8980000
  60.1560000  46.8670000  74.8070000  59.3420000  46.1870000  77.0250000
  60.1300000  47.9770000  72.4240000  56.9410000  49.8590000  71.8150000
  58.7010000  49.3350000  71.0230000  55.5190000  46.7390000  79.8860000
  54.5090000  47.8660000  78.5400000  57.7230000  45.9880000  79.1220000
  59.9190000  48.6200000  71.2520000  60.9450000  47.5080000  72.5610000
  58.5630000  49.7800000  70.1950000  54.5350000  46.7560000  80.9230000
  56.7500000  46.0150000  80.1120000  58.5240000  45.5000000  79.2740000
  60.5860000  48.5970000  70.5760000  54.7460000  46.1120000  82.0950000
  53.7200000  47.2250000  80.7870000  56.9220000  45.3550000  81.3660000
  55.9640000  45.3980000  82.3240000  54.0800000  46.1360000  82.7710000
  57.7240000  44.8740000  81.5320000  56.1030000  44.9530000  83.1520000
  57.6150000  51.3450000  89.5060000  57.4440000  52.0220000  88.2820000
  56.6390000  51.3500000  90.5100000  58.8590000  50.6160000  89.7380000
  56.6430000  52.5100000  88.1300000  58.4170000  51.9950000  87.2920000
  55.8250000  51.8230000  90.3790000  56.8090000  50.6700000  91.7230000
  59.8430000  50.6110000  88.7190000  59.0290000  49.9360000  90.9510000
  59.6470000  51.2710000  87.5180000  58.2450000  52.6550000  86.0380000
  55.8250000  50.6750000  92.7420000  58.0530000  49.9410000  91.9550000
  60.6570000  50.1440000  88.8640000  59.8430000  49.4640000  91.0820000
  60.6320000  51.2540000  86.4810000  57.4420000  53.1360000  85.8720000
  59.2030000  52.6120000  85.0800000  56.0210000  50.0160000  93.9420000
  55.0110000  51.1430000  92.5970000  58.2240000  49.2640000  93.1790000
  60.4200000  51.8970000  85.3090000  61.4460000  50.7850000  86.6170000
  59.0640000  53.0570000  84.2520000  55.0360000  50.0330000  94.9800000
  57.2510000  49.2920000  94.1690000  59.0250000  48.7770000  93.3310000
  61.0870000  51.8740000  84.6320000  55.2480000  49.3890000  96.1520000
  54.2220000  50.5020000  94.8430000  57.4230000  48.6320000  95.4230000
  56.4650000  48.6750000  96.3810000  54.5810000  49.4130000  96.8280000
  58.2260000  48.1510000  95.5880000  56.6040000  48.2300000  97.2090000
  55.0460000  30.2800000   7.6140000  55.2160000  29.6030000   8.8380000
  56.0220000  30.2750000   6.6100000  53.8020000  31.0090000   7.3820000
  56.0180000  29.1160000   8.9900000  54.2440000  29.6310000   9.8280000
  56.8350000  29.8030000   6.7410000  55.8510000  30.9550000   5.3970000
  52.8170000  31.0140000   8.4010000  53.6310000  31.6890000   6.1690000
  53.0130000  30.3550000   9.6010000  54.4160000  28.9710000  11.0820000
  56.8350000  30.9500000   4.3780000  54.6070000  31.6840000   5.1650000
  52.0030000  31.4820000   8.2560000  52.8180000  32.1620000   6.0380000
  52.0290000  30.3720000  10.6390000  55.2180000  28.4900000  11.2470000
  53.4580000  29.0140000  12.0400000  56.6400000  31.6100000   3.1770000
  57.6500000  30.4830000   4.5230000  54.4370000  32.3610000   3.9410000
  52.2400000  29.7280000  11.8110000  51.2140000  30.8410000  10.5020000
  53.5960000  28.5690000  12.8680000  57.6240000  31.5930000   2.1400000
  55.4090000  32.3340000   2.9510000  53.6350000  32.8490000   3.7890000
  51.5740000  29.7520000  12.4870000  57.4130000  32.2360000   0.9680000
  58.4390000  31.1240000   2.2760000  55.2370000  32.9940000   1.6970000
  56.1950000  32.9510000   0.7390000  58.0790000  32.2130000   0.2920000
  54.4350000  33.4750000   1.5310000  56.0570000  33.3960000  -0.0890000
  55.8440000  42.6400000  19.2220000  55.6740000  43.3160000  17.9980000
  54.8690000  42.6450000  20.2260000  57.0880000  41.9110000  19.4540000
  54.8730000  43.8040000  17.8460000  56.6470000  43.2890000  17.0080000
  54.0550000  43.1170000  20.0950000  55.0390000  41.9650000  21.4390000
  58.0730000  41.9060000  18.4350000  57.2590000  41.2300000  20.6670000
  57.8770000  42.5650000  17.2340000  56.4750000  43.9490000  15.7540000
  54.0550000  41.9700000  22.4580000  56.2830000  41.2360000  21.6710000
  58.8870000  41.4380000  18.5800000  58.0730000  40.7580000  20.7980000
  58.8610000  42.5480000  16.1970000  55.6720000  44.4300000  15.5880000
  57.4320000  43.9060000  14.7950000  54.2500000  41.3100000  23.6580000
  53.2410000  42.4370000  22.3130000  56.4540000  40.5590000  22.8950000
  58.6500000  43.1920000  15.0250000  59.6760000  42.0790000  16.3330000
  57.2940000  44.3510000  13.9670000  53.2660000  41.3270000  24.6960000
  55.4810000  40.5860000  23.8850000  57.2550000  40.0710000  23.0470000
  59.3170000  43.1680000  14.3480000  53.4770000  40.6840000  25.8680000
  52.4520000  41.7960000  24.5590000  55.6530000  39.9260000  25.1380000
  54.6950000  39.9690000  26.0970000  52.8110000  40.7070000  26.5440000
  56.4560000  39.4450000  25.3040000  54.8340000  39.5240000  26.9250000
  56.3460000  45.9170000  33.2790000  56.1750000  46.5930000  32.0540000
  55.3700000  45.9220000  34.2820000  57.5900000  45.1870000  33.5110000
  55.3740000  47.0810000  31.9030000  57.1480000  46.5660000  31.0650000
  54.5560000  46.3940000  34.1520000  55.5400000  45.2420000  35.4960000
  58.5740000  45.1830000  32.4920000  57.7600000  44.5070000  34.7240000
  58.3780000  45.8420000  31.2910000  56.9760000  47.2260000  29.8110000
  54.5560000  45.2470000  36.5150000  56.7850000  44.5120000  35.7270000
  59.3880000  44.7150000  32.6360000  58.5740000  44.0350000  34.8550000
  59.3630000  45.8250000  30.2540000  56.1730000  47.7070000  29.6450000
  57.9340000  47.1830000  28.8520000  54.7520000  44.5870000  37.7150000
  53.7420000  45.7140000  36.3700000  56.9550000  43.8360000  36.9520000
  59.1510000  46.4680000  29.0810000  60.1770000  45.3560000  30.3900000
  57.7950000  47.6280000  28.0240000  53.7670000  44.6040000  38.7520000
  55.9820000  43.8630000  37.9410000  57.7560000  43.3480000  37.1040000
  59.8180000  46.4450000  28.4050000  53.9790000  43.9610000  39.9250000
  52.9530000  45.0730000  38.6160000  56.1540000  43.2030000  39.1950000
  55.1970000  43.2460000  40.1540000  53.3120000  43.9840000  40.6010000
  56.9570000  42.7220000  39.3610000  55.3350000  42.8010000  40.9820000
  56.8470000  49.1930000  47.3360000  56.6760000  49.8700000  46.1110000
  55.8710000  49.1990000  48.3390000  58.0910000  48.4640000  47.5670000
  55.8750000  50.3580000  45.9590000  57.6490000  49.8430000  45.1220000
  55.0570000  49.6710000  48.2080000  56.0420000  48.5180000  49.5520000
  59.0750000  48.4590000  46.5480000  58.2620000  47.7840000  48.7810000
  58.8800000  49.1190000  45.3480000  57.4770000  50.5030000  43.8680000
  55.0570000  48.5230000  50.5710000  57.2860000  47.7890000  49.7840000
  59.8900000  47.9920000  46.6930000  59.0750000  47.3120000  48.9110000
  59.8640000  49.1020000  44.3110000  56.6750000  50.9840000  43.7020000
  58.4350000  50.4600000  42.9090000  55.2530000  47.8640000  51.7720000
  54.2430000  48.9910000  50.4270000  57.4560000  47.1130000  51.0090000
  59.6530000  49.7450000  43.1380000  60.6790000  48.6330000  44.4470000
  58.2960000  50.9050000  42.0810000  54.2690000  47.8810000  52.8090000
  56.4840000  47.1400000  51.9980000  58.2570000  46.6250000  51.1600000
  60.3190000  49.7220000  42.4620000  54.4800000  47.2370000  53.9820000
  53.4540000  48.3500000  52.6730000  56.6550000  46.4800000  53.2520000
  55.6980000  46.5230000  54.2110000  53.8130000  47.2610000  54.6580000
  57.4580000  45.9990000  53.4180000  55.8360000  46.0780000  55.0390000
  55.7820000  37.9590000   7.6140000  55.9520000  37.2820000   8.8380000
  56.7580000  37.9540000   6.6100000  54.5380000  38.6880000   7.3820000
  56.7540000  36.7950000   8.9900000  54.9800000  37.3090000   9.8280000
  57.5710000  37.4810000   6.7410000  56.5870000  38.6340000   5.3970000
  53.5540000  38.6930000   8.4010000  54.3670000  39.3680000   6.1690000
  53.7490000  38.0340000   9.6010000  55.1520000  36.6490000  11.0820000
  57.5720000  38.6290000   4.3780000  55.3430000  39.3630000   5.1650000
  52.7390000  39.1610000   8.2560000  53.5540000  39.8410000   6.0380000
  52.7650000  38.0500000  10.6390000  55.9540000  36.1680000  11.2470000
  54.1940000  36.6920000  12.0400000  57.3760000  39.2880000   3.1770000
  58.3860000  38.1610000   4.5230000  55.1730000  40.0400000   3.9410000
  52.9760000  37.4070000  11.8110000  51.9500000  38.5190000  10.5020000
  54.3320000  36.2470000  12.8680000  58.3600000  39.2710000   2.1400000
  56.1450000  40.0120000   2.9510000  54.3710000  40.5270000   3.7890000
  52.3100000  37.4300000  12.4870000  58.1490000  39.9150000   0.9680000
  59.1750000  38.8020000   2.2760000  55.9730000  40.6720000   1.6970000
  56.9310000  40.6290000   0.7390000  58.8150000  39.8920000   0.2920000
  55.1710000  41.1530000   1.5310000  56.7930000  41.0740000  -0.0890000
  57.8490000  55.7470000  75.4490000  57.6790000  56.4240000  74.2250000
  56.8740000  55.7520000  76.4530000  59.0930000  55.0180000  75.6810000
  56.8780000  56.9110000  74.0730000  58.6520000  56.3970000  73.2350000
  56.0600000  56.2250000  76.3220000  57.0440000  55.0720000  77.6660000
  60.0780000  55.0130000  74.6620000  59.2640000  54.3380000  76.8940000
  59.8820000  55.6720000  73.4620000  58.4800000  57.0560000  71.9810000
  56.0600000  55.0770000  78.6850000  58.2880000  54.3430000  77.8980000
  60.8920000  54.5450000  74.8070000  60.0780000  53.8650000  77.0250000
  60.8660000  55.6550000  72.4240000  57.6770000  57.5380000  71.8150000
  59.4370000  57.0130000  71.0230000  56.2550000  54.4180000  79.8860000
  55.2460000  55.5450000  78.5400000  58.4590000  53.6660000  79.1220000
  60.6550000  56.2990000  71.2520000  61.6810000  55.1870000  72.5610000
  59.2990000  57.4580000  70.1950000  55.2710000  54.4350000  80.9230000
  57.4860000  53.6930000  80.1120000  59.2600000  53.1790000  79.2740000
  61.3220000  56.2760000  70.5760000  55.4820000  53.7910000  82.0950000
  54.4570000  54.9030000  80.7870000  57.6580000  53.0340000  81.3660000
  56.7000000  53.0770000  82.3240000  54.8160000  53.8140000  82.7710000
  58.4610000  52.5520000  81.5320000  56.8390000  52.6320000  83.1520000
  58.7900000  57.6200000  91.9550000  58.9600000  56.9430000  93.1790000
  59.7650000  57.6150000  90.9510000  57.5450000  58.3490000  91.7230000
  59.7610000  56.4560000  93.3310000  57.9870000  56.9700000  94.1690000
  60.5790000  57.1420000  91.0820000  59.5950000  58.2950000  89.7380000
  56.5610000  58.3540000  92.7420000  57.3750000  59.0290000  90.5100000
  56.7570000  57.6950000  93.9420000  58.1590000  56.3100000  95.4230000
  60.5790000  58.2900000  88.7190000  58.3510000  59.0240000  89.5060000
  55.7470000  58.8220000  92.5970000  56.5610000  59.5020000  90.3790000
  55.7730000  57.7110000  94.9800000  58.9620000  55.8290000  95.5880000
  57.2020000  56.3530000  96.3810000  60.3830000  58.9490000  87.5180000
  61.3930000  57.8220000  88.8640000  58.1800000  59.7010000  88.2820000
  55.9840000  57.0680000  96.1520000  54.9580000  58.1800000  94.8430000
  57.3400000  55.9080000  97.2090000  61.3680000  58.9320000  86.4810000
  59.1530000  59.6730000  87.2920000  57.3790000  60.1880000  88.1300000
  55.3170000  57.0910000  96.8280000  61.1570000  59.5760000  85.3090000
  62.1820000  58.4630000  86.6170000  58.9810000  60.3330000  86.0380000
  59.9390000  60.2900000  85.0800000  61.8230000  59.5530000  84.6320000
  58.1780000  60.8140000  85.8720000  59.8000000  60.7350000  84.2520000
  57.0190000  48.9140000  21.6710000  57.1900000  48.2380000  22.8950000
  57.9950000  48.9090000  20.6670000  55.7750000  49.6430000  21.4390000
  57.9910000  47.7500000  23.0470000  56.2170000  48.2650000  23.8850000
  58.8090000  48.4370000  20.7980000  57.8250000  49.5890000  19.4540000
  54.7910000  49.6480000  22.4580000  55.6050000  50.3230000  20.2260000
  54.9870000  48.9890000  23.6580000  56.3890000  47.6050000  25.1380000
  58.8090000  49.5840000  18.4350000  56.5800000  50.3180000  19.2220000
  53.9770000  50.1160000  22.3130000  54.7910000  50.7960000  20.0950000
  54.0020000  49.0060000  24.6960000  57.1920000  47.1240000  25.3040000
  55.4310000  47.6480000  26.0970000  58.6130000  50.2440000  17.2340000
  59.6230000  49.1170000  18.5800000  56.4100000  50.9950000  17.9980000
  54.2140000  48.3620000  25.8680000  53.1880000  49.4750000  24.5590000
  55.5700000  47.2030000  26.9250000  59.5980000  50.2270000  16.1970000
  57.3830000  50.9680000  17.0080000  55.6090000  51.4830000  17.8460000
  53.5470000  48.3860000  26.5440000  59.3860000  50.8700000  15.0250000
  60.4120000  49.7580000  16.3330000  57.2110000  51.6280000  15.7540000
  58.1680000  51.5850000  14.7950000  60.0530000  50.8470000  14.3480000
  56.4080000  52.1090000  15.5880000  58.0300000  52.0300000  13.9670000
  57.0820000  53.5950000  33.2790000  56.9110000  54.2720000  32.0540000
  56.1060000  53.6000000  34.2820000  58.3260000  52.8660000  33.5110000
  56.1100000  54.7590000  31.9030000  57.8840000  54.2450000  31.0650000
  55.2920000  54.0730000  34.1520000  56.2770000  52.9200000  35.4960000
  59.3100000  52.8610000  32.4920000  58.4960000  52.1860000  34.7240000
  59.1150000  53.5200000  31.2910000  57.7120000  54.9050000  29.8110000
  55.2920000  52.9250000  36.5150000  57.5210000  52.1910000  35.7270000
  60.1240000  52.3930000  32.6360000  59.3100000  51.7130000  34.8550000
  60.0990000  53.5040000  30.2540000  56.9090000  55.3860000  29.6450000
  58.6700000  54.8620000  28.8520000  55.4880000  52.2660000  37.7150000
  54.4780000  53.3930000  36.3700000  57.6910000  51.5140000  36.9520000
  59.8880000  54.1470000  29.0810000  60.9130000  53.0350000  30.3900000
  58.5310000  55.3070000  28.0240000  54.5040000  52.2830000  38.7520000
  56.7190000  51.5420000  37.9410000  58.4920000  51.0270000  37.1040000
  60.5540000  54.1240000  28.4050000  54.7150000  51.6390000  39.9250000
  53.6890000  52.7520000  38.6160000  56.8900000  50.8820000  39.1950000
  55.9330000  50.9250000  40.1540000  54.0480000  51.6620000  40.6010000
  57.6930000  50.4010000  39.3610000  56.0710000  50.4800000  40.9820000
  58.0220000  55.4680000  49.7840000  58.1920000  54.7910000  51.0090000
  58.9980000  55.4630000  48.7810000  56.7780000  56.1970000  49.5520000
  58.9940000  54.3040000  51.1600000  57.2200000  54.8180000  51.9980000
  59.8110000  54.9900000  48.9110000  58.8270000  56.1430000  47.5670000
  55.7930000  56.2020000  50.5710000  56.6070000  56.8770000  48.3390000
  55.9890000  55.5430000  51.7720000  57.3920000  54.1590000  53.2520000
  59.8110000  56.1380000  46.5480000  57.5830000  56.8720000  47.3360000
  54.9790000  56.6700000  50.4270000  55.7940000  57.3500000  48.2080000
  55.0050000  55.5600000  52.8090000  58.1940000  53.6770000  53.4180000
  56.4340000  54.2020000  54.2110000  59.6160000  56.7970000  45.3480000
  60.6260000  55.6700000  46.6930000  57.4130000  57.5490000  46.1110000
  55.2160000  54.9160000  53.9820000  54.1900000  56.0280000  52.6730000
  56.5720000  53.7560000  55.0390000  60.6000000  56.7800000  44.3110000
  58.3850000  57.5220000  45.1220000  56.6110000  58.0360000  45.9590000
  54.5500000  54.9390000  54.6580000  60.3890000  57.4240000  43.1380000
  61.4150000  56.3110000  44.4470000  58.2130000  58.1810000  43.8680000
  59.1710000  58.1380000  42.9090000  61.0550000  57.4010000  42.4620000
  57.4110000  58.6630000  43.7020000  59.0330000  58.5830000  42.0810000
  56.0790000  47.0420000   5.1650000  55.9090000  47.7180000   3.9410000
  55.1030000  47.0470000   6.1690000  57.3230000  46.3120000   5.3970000
  55.1080000  48.2060000   3.7890000  56.8810000  47.6910000   2.9510000
  54.2900000  47.5190000   6.0380000  55.2740000  46.3670000   7.3820000
  58.3080000  46.3070000   4.3780000  57.4940000  45.6320000   6.6100000
  58.1120000  46.9670000   3.1770000  56.7100000  48.3510000   1.6970000
  54.2900000  46.3710000   8.4010000  56.5180000  45.6370000   7.6140000
  59.1220000  45.8400000   4.5230000  58.3080000  45.1600000   6.7410000
  59.0960000  46.9500000   2.1400000  55.9070000  48.8320000   1.5310000
  57.6670000  48.3080000   0.7390000  54.4850000  45.7120000   9.6010000
  53.4750000  46.8390000   8.2560000  56.6890000  44.9610000   8.8380000
  58.8850000  47.5930000   0.9680000  59.9110000  46.4810000   2.2760000
  57.5290000  48.7530000  -0.0890000  53.5010000  45.7290000  10.6390000
  55.7160000  44.9880000   9.8280000  57.4900000  44.4730000   8.9900000
  59.5520000  47.5700000   0.2920000  53.7120000  45.0860000  11.8110000
  52.6860000  46.1980000  10.5020000  55.8880000  44.3280000  11.0820000
  54.9300000  44.3710000  12.0400000  53.0460000  45.1090000  12.4870000
  56.6900000  43.8470000  11.2470000  55.0690000  43.9260000  12.8680000
  58.5860000  63.4260000  75.4490000  58.4150000  64.1020000  74.2250000
  57.6100000  63.4310000  76.4530000  59.8300000  62.6970000  75.6810000
  57.6140000  64.5900000  74.0730000  59.3880000  64.0750000  73.2350000
  56.7960000  63.9030000  76.3220000  57.7800000  62.7510000  77.6660000
  60.8140000  62.6920000  74.6620000  60.0000000  62.0160000  76.8940000
  60.6180000  63.3510000  73.4620000  59.2160000  64.7350000  71.9810000
  56.7960000  62.7560000  78.6850000  59.0240000  62.0220000  77.8980000
  61.6280000  62.2240000  74.8070000  60.8140000  61.5440000  77.0250000
  61.6030000  63.3340000  72.4240000  58.4130000  65.2160000  71.8150000
  60.1740000  64.6920000  71.0230000  56.9920000  62.0960000  79.8860000
  55.9820000  63.2230000  78.5400000  59.1950000  61.3450000  79.1220000
  61.3910000  63.9780000  71.2520000  62.4170000  62.8650000  72.5610000
  60.0350000  65.1370000  70.1950000  56.0070000  62.1130000  80.9230000
  58.2220000  61.3720000  80.1120000  59.9960000  60.8570000  79.2740000
  62.0580000  63.9540000  70.5760000  56.2190000  61.4700000  82.0950000
  55.1930000  62.5820000  80.7870000  58.3940000  60.7120000  81.3660000
  57.4360000  60.7550000  82.3240000  55.5520000  61.4930000  82.7710000
  59.1970000  60.2310000  81.5320000  57.5750000  60.3100000  83.1520000
  59.5260000  65.2980000  91.9550000  59.6960000  64.6220000  93.1790000
  60.5010000  65.2930000  90.9510000  58.2820000  66.0280000  91.7230000
  60.4970000  64.1340000  93.3310000  58.7240000  64.6490000  94.1690000
  61.3150000  64.8210000  91.0820000  60.3310000  65.9730000  89.7380000
  57.2970000  66.0320000  92.7420000  58.1110000  66.7080000  90.5100000
  57.4930000  65.3730000  93.9420000  58.8950000  63.9890000  95.4230000
  61.3150000  65.9680000  88.7190000  59.0870000  66.7030000  89.5060000
  56.4830000  66.5000000  92.5970000  57.2970000  67.1800000  90.3790000
  56.5090000  65.3900000  94.9800000  59.6980000  63.5080000  95.5880000
  57.9380000  64.0320000  96.3810000  61.1200000  66.6280000  87.5180000
  62.1300000  65.5010000  88.8640000  58.9160000  67.3790000  88.2820000
  56.7200000  64.7470000  96.1520000  55.6940000  65.8590000  94.8430000
  58.0760000  63.5870000  97.2090000  62.1040000  66.6110000  86.4810000
  59.8890000  67.3520000  87.2920000  58.1150000  67.8670000  88.1300000
  56.0530000  64.7700000  96.8280000  61.8930000  67.2540000  85.3090000
  62.9190000  66.1420000  86.6170000  59.7170000  68.0120000  86.0380000
  60.6750000  67.9690000  85.0800000  62.5590000  67.2310000  84.6320000
  58.9140000  68.4930000  85.8720000  60.5360000  68.4140000  84.2520000
  57.3170000  57.9970000  19.2220000  57.1460000  58.6740000  17.9980000
  56.3410000  58.0020000  20.2260000  58.5610000  57.2680000  19.4540000
  56.3450000  59.1610000  17.8460000  58.1190000  58.6460000  17.0080000
  55.5270000  58.4750000  20.0950000  56.5110000  57.3220000  21.4390000
  59.5450000  57.2630000  18.4350000  58.7310000  56.5880000  20.6670000
  59.3490000  57.9220000  17.2340000  57.9470000  59.3060000  15.7540000
  55.5270000  57.3270000  22.4580000  57.7560000  56.5930000  21.6710000
  60.3590000  56.7950000  18.5800000  59.5450000  56.1150000  20.7980000
  60.3340000  57.9050000  16.1970000  57.1440000  59.7870000  15.5880000
  58.9050000  59.2630000  14.7950000  55.7230000  56.6680000  23.6580000
  54.7130000  57.7950000  22.3130000  57.9260000  55.9160000  22.8950000
  60.1220000  58.5490000  15.0250000  61.1480000  57.4360000  16.3330000
  58.7660000  59.7080000  13.9670000  54.7380000  56.6840000  24.6960000
  56.9530000  55.9430000  23.8850000  58.7270000  55.4290000  23.0470000
  60.7890000  58.5260000  14.3480000  54.9500000  56.0410000  25.8680000
  53.9240000  57.1530000  24.5590000  57.1250000  55.2830000  25.1380000
  56.1680000  55.3260000  26.0970000  54.2830000  56.0640000  26.5440000
  57.9280000  54.8020000  25.3040000  56.3060000  54.8810000  26.9250000
  58.2570000  59.8700000  35.7270000  58.4270000  59.1930000  36.9520000
  59.2330000  59.8650000  34.7240000  57.0130000  60.5990000  35.4960000
  59.2280000  58.7050000  37.1040000  57.4550000  59.2200000  37.9410000
  60.0460000  59.3920000  34.8550000  59.0620000  60.5450000  33.5110000
  56.0280000  60.6040000  36.5150000  56.8420000  61.2790000  34.2820000
  56.2240000  59.9440000  37.7150000  57.6260000  58.5600000  39.1950000
  60.0460000  60.5400000  32.4920000  57.8180000  61.2740000  33.2790000
  55.2140000  61.0710000  36.3700000  56.0280000  61.7510000  34.1520000
  55.2400000  59.9610000  38.7520000  58.4290000  58.0790000  39.3610000
  56.6690000  58.6030000  40.1540000  59.8510000  61.1990000  31.2910000
  60.8610000  60.0720000  32.6360000  57.6470000  61.9500000  32.0540000
  55.4510000  59.3180000  39.9250000  54.4250000  60.4300000  38.6160000
  56.8070000  58.1580000  40.9820000  60.8350000  61.1820000  30.2540000
  58.6200000  61.9230000  31.0650000  56.8460000  62.4380000  31.9030000
  54.7840000  59.3410000  40.6010000  60.6240000  61.8260000  29.0810000
  61.6500000  60.7130000  30.3900000  58.4480000  62.5830000  29.8110000
  59.4060000  62.5400000  28.8520000  61.2900000  61.8020000  28.4050000
  57.6460000  63.0640000  29.6450000  59.2670000  62.9850000  28.0240000
  57.2540000  53.3160000   7.6140000  57.4250000  52.6390000   8.8380000
  58.2300000  53.3110000   6.6100000  56.0100000  54.0450000   7.3820000
  58.2260000  52.1520000   8.9900000  56.4520000  52.6660000   9.8280000
  59.0440000  52.8380000   6.7410000  58.0590000  53.9910000   5.3970000
  55.0260000  54.0500000   8.4010000  55.8400000  54.7250000   6.1690000
  55.2210000  53.3910000   9.6010000  56.6240000  52.0070000  11.0820000
  59.0440000  53.9860000   4.3780000  56.8150000  54.7200000   5.1650000
  54.2110000  54.5180000   8.2560000  55.0260000  55.1980000   6.0380000
  54.2370000  53.4080000  10.6390000  57.4270000  51.5250000  11.2470000
  55.6660000  52.0500000  12.0400000  58.8480000  54.6450000   3.1770000
  59.8580000  53.5180000   4.5230000  56.6450000  55.3970000   3.9410000
  54.4480000  52.7640000  11.8110000  53.4220000  53.8770000  10.5020000
  55.8050000  51.6050000  12.8680000  59.8320000  54.6280000   2.1400000
  57.6170000  55.3700000   2.9510000  55.8440000  55.8840000   3.7890000
  53.7820000  52.7870000  12.4870000  59.6210000  55.2720000   0.9680000
  60.6470000  54.1600000   2.2760000  57.4460000  56.0290000   1.6970000
  58.4030000  55.9860000   0.7390000  60.2880000  55.2490000   0.2920000
  56.6430000  56.5110000   1.5310000  58.2650000  56.4320000  -0.0890000
  59.8230000  74.3810000  89.5060000  59.6520000  75.0580000  88.2820000
  58.8470000  74.3860000  90.5100000  61.0670000  73.6520000  89.7380000
  58.8510000  75.5450000  88.1300000  60.6250000  75.0310000  87.2920000
  58.0330000  74.8590000  90.3790000  59.0180000  73.7060000  91.7230000
  62.0510000  73.6470000  88.7190000  61.2380000  72.9720000  90.9510000
  61.8560000  74.3060000  87.5180000  60.4530000  75.6900000  86.0380000
  58.0330000  73.7110000  92.7420000  60.2620000  72.9770000  91.9550000
  62.8660000  73.1790000  88.8640000  62.0510000  72.4990000  91.0820000
  62.8400000  74.2890000  86.4810000  59.6510000  76.1720000  85.8720000
  61.4110000  75.6470000  85.0800000  58.2290000  73.0520000  93.9420000
  57.2190000  74.1790000  92.5970000  60.4320000  72.3000000  93.1790000
  62.6290000  74.9330000  85.3090000  63.6550000  73.8210000  86.6170000
  61.2720000  76.0930000  84.2520000  57.2450000  73.0690000  94.9800000
  59.4600000  72.3270000  94.1690000  61.2330000  71.8130000  93.3310000
  63.2950000  74.9100000  84.6320000  57.4560000  72.4250000  96.1520000
  56.4300000  73.5380000  94.8430000  59.6310000  71.6680000  95.4230000
  58.6740000  71.7110000  96.3810000  56.7890000  72.4480000  96.8280000
  60.4340000  71.1860000  95.5880000  58.8120000  71.2660000  97.2090000
  58.5540000  68.9520000  33.2790000  58.3840000  69.6290000  32.0540000
  57.5780000  68.9580000  34.2820000  59.7980000  68.2230000  33.5110000
  57.5820000  70.1170000  31.9030000  59.3560000  69.6020000  31.0650000
  56.7650000  69.4300000  34.1520000  57.7490000  68.2770000  35.4960000
  60.7820000  68.2180000  32.4920000  59.9690000  67.5430000  34.7240000
  60.5870000  68.8780000  31.2910000  59.1840000  70.2620000  29.8110000
  56.7640000  68.2820000  36.5150000  58.9930000  67.5480000  35.7270000
  61.5970000  67.7510000  32.6360000  60.7820000  67.0710000  34.8550000
  61.5710000  68.8610000  30.2540000  58.3820000  70.7430000  29.6450000
  60.1420000  70.2190000  28.8520000  56.9600000  67.6230000  37.7150000
  55.9500000  68.7500000  36.3700000  59.1630000  66.8720000  36.9520000
  61.3600000  69.5040000  29.0810000  62.3860000  68.3920000  30.3900000
  60.0040000  70.6640000  28.0240000  55.9760000  67.6400000  38.7520000
  58.1910000  66.8990000  37.9410000  59.9650000  66.3840000  37.1040000
  62.0260000  69.4810000  28.4050000  56.1870000  66.9960000  39.9250000
  55.1610000  68.1090000  38.6160000  58.3630000  66.2390000  39.1950000
  57.4050000  66.2820000  40.1540000  55.5210000  67.0200000  40.6010000
  59.1650000  65.7580000  39.3610000  57.5430000  65.8370000  40.9820000
  60.9980000  80.6560000  91.9550000  61.1680000  79.9790000  93.1790000
  61.9740000  80.6500000  90.9510000  59.7540000  81.3850000  91.7230000
  61.9700000  79.4910000  93.3310000  60.1960000  80.0060000  94.1690000
  62.7870000  80.1780000  91.0820000  61.8030000  81.3310000  89.7380000
  58.7690000  81.3900000  92.7420000  59.5830000  82.0650000  90.5100000
  58.9650000  80.7300000  93.9420000  60.3680000  79.3460000  95.4230000
  62.7870000  81.3260000  88.7190000  60.5590000  82.0600000  89.5060000
  57.9550000  81.8570000  92.5970000  58.7700000  82.5370000  90.3790000
  57.9810000  80.7470000  94.9800000  61.1700000  78.8650000  95.5880000
  59.4100000  79.3890000  96.3810000  62.5920000  81.9850000  87.5180000
  63.6020000  80.8580000  88.8640000  60.3890000  82.7360000  88.2820000
  58.1920000  80.1040000  96.1520000  57.1660000  81.2160000  94.8430000
  59.5480000  78.9440000  97.2090000  63.5760000  81.9680000  86.4810000
  61.3610000  82.7090000  87.2920000  59.5870000  83.2240000  88.1300000
  57.5260000  80.1270000  96.8280000  63.3650000  82.6120000  85.3090000
  64.3910000  81.4990000  86.6170000  61.1890000  83.3690000  86.0380000
  62.1470000  83.3260000  85.0800000  64.0310000  82.5880000  84.6320000
  60.3870000  83.8500000  85.8720000  62.0090000  83.7710000  84.2520000
  58.4920000  64.2710000  21.6710000  58.6620000  63.5950000  22.8950000
  59.4670000  64.2660000  20.6670000  57.2480000  65.0010000  21.4390000
  59.4630000  63.1070000  23.0470000  57.6890000  63.6220000  23.8850000
  60.2810000  63.7940000  20.7980000  59.2970000  64.9460000  19.4540000
  56.2630000  65.0050000  22.4580000  57.0770000  65.6810000  20.2260000
  56.4590000  64.3460000  23.6580000  57.8610000  62.9620000  25.1380000
  60.2810000  64.9410000  18.4350000  58.0530000  65.6760000  19.2220000
  55.4490000  65.4730000  22.3130000  56.2630000  66.1530000  20.0950000
  55.4750000  64.3630000  24.6960000  58.6640000  62.4810000  25.3040000
  56.9040000  63.0050000  26.0970000  60.0860000  65.6010000  17.2340000
  61.0950000  64.4740000  18.5800000  57.8820000  66.3520000  17.9980000
  55.6860000  63.7200000  25.8680000  54.6600000  64.8320000  24.5590000
  57.0420000  62.5600000  26.9250000  61.0700000  65.5840000  16.1970000
  58.8550000  66.3250000  17.0080000  57.0810000  66.8400000  17.8460000
  55.0190000  63.7430000  26.5440000  60.8590000  66.2270000  15.0250000
  61.8840000  65.1150000  16.3330000  58.6830000  66.9850000  15.7540000
  59.6410000  66.9420000  14.7950000  61.5250000  66.2040000  14.3480000
  57.8800000  67.4660000  15.5880000  59.5020000  67.3870000  13.9670000
  59.2280000  71.9500000  21.6710000  59.3980000  71.2730000  22.8950000
  60.2040000  71.9450000  20.6670000  57.9840000  72.6790000  21.4390000
  60.1990000  70.7860000  23.0470000  58.4260000  71.3010000  23.8850000
  61.0170000  71.4720000  20.7980000  60.0330000  72.6250000  19.4540000
  56.9990000  72.6840000  22.4580000  57.8130000  73.3590000  20.2260000
  57.1950000  72.0250000  23.6580000  58.5970000  70.6410000  25.1380000
  61.0170000  72.6200000  18.4350000  58.7890000  73.3540000  19.2220000
  56.1850000  73.1520000  22.3130000  56.9990000  73.8320000  20.0950000
  56.2110000  72.0420000  24.6960000  59.4000000  70.1590000  25.3040000
  57.6400000  70.6840000  26.0970000  60.8220000  73.2790000  17.2340000
  61.8320000  72.1520000  18.5800000  58.6180000  74.0310000  17.9980000
  56.4220000  71.3980000  25.8680000  55.3960000  72.5110000  24.5590000
  57.7780000  70.2390000  26.9250000  61.8060000  73.2620000  16.1970000
  59.5910000  74.0040000  17.0080000  57.8170000  74.5180000  17.8460000
  55.7550000  71.4210000  26.5440000  61.5950000  73.9060000  15.0250000
  62.6210000  72.7940000  16.3330000  59.4190000  74.6630000  15.7540000
  60.3770000  74.6200000  14.7950000  62.2610000  73.8830000  14.3480000
  58.6170000  75.1450000  15.5880000  60.2380000  75.0660000  13.9670000
  59.2900000  76.6310000  33.2790000  59.1200000  77.3080000  32.0540000
  58.3140000  76.6360000  34.2820000  60.5340000  75.9020000  33.5110000
  58.3180000  77.7950000  31.9030000  60.0920000  77.2800000  31.0650000
  57.5010000  77.1090000  34.1520000  58.4850000  75.9560000  35.4960000
  61.5190000  75.8970000  32.4920000  60.7050000  75.2220000  34.7240000
  61.3230000  76.5560000  31.2910000  59.9200000  77.9400000  29.8110000
  57.5010000  75.9610000  36.5150000  59.7290000  75.2270000  35.7270000
  62.3330000  75.4290000  32.6360000  61.5180000  74.7490000  34.8550000
  62.3070000  76.5390000  30.2540000  59.1180000  78.4210000  29.6450000
  60.8780000  77.8970000  28.8520000  57.6960000  75.3020000  37.7150000
  56.6860000  76.4290000  36.3700000  59.8990000  74.5500000  36.9520000
  62.0960000  77.1830000  29.0810000  63.1220000  76.0700000  30.3900000
  60.7400000  78.3420000  28.0240000  56.7120000  75.3190000  38.7520000
  58.9270000  74.5770000  37.9410000  60.7010000  74.0630000  37.1040000
  62.7620000  77.1600000  28.4050000  56.9230000  74.6750000  39.9250000
  55.8970000  75.7870000  38.6160000  59.0990000  73.9170000  39.1950000
  58.1410000  73.9610000  40.1540000  56.2570000  74.6980000  40.6010000
  59.9010000  73.4360000  39.3610000  58.2790000  73.5150000  40.9820000
  59.7910000  79.9080000  47.3360000  59.6210000  80.5850000  46.1110000
  58.8160000  79.9130000  48.3390000  61.0350000  79.1790000  47.5670000
  58.8200000  81.0720000  45.9590000  60.5930000  80.5570000  45.1220000
  58.0020000  80.3850000  48.2080000  58.9860000  79.2330000  49.5520000
  62.0200000  79.1740000  46.5480000  61.2060000  78.4990000  48.7810000
  61.8240000  79.8330000  45.3480000  60.4220000  81.2170000  43.8680000
  58.0020000  79.2380000  50.5710000  60.2300000  78.5040000  49.7840000
  62.8340000  78.7060000  46.6930000  62.0200000  78.0260000  48.9110000
  62.8080000  79.8160000  44.3110000  59.6190000  81.6980000  43.7020000
  61.3790000  81.1740000  42.9090000  58.1970000  78.5780000  51.7720000
  57.1880000  79.7050000  50.4270000  60.4010000  77.8270000  51.0090000
  62.5970000  80.4600000  43.1380000  63.6230000  79.3470000  44.4470000
  61.2410000  81.6190000  42.0810000  57.2130000  78.5950000  52.8090000
  59.4280000  77.8540000  51.9980000  61.2020000  77.3390000  51.1600000
  63.2640000  80.4360000  42.4620000  57.4240000  77.9520000  53.9820000
  56.3990000  79.0640000  52.6730000  59.6000000  77.1940000  53.2520000
  58.6420000  77.2370000  54.2110000  56.7580000  77.9750000  54.6580000
  60.4030000  76.7130000  53.4180000  58.7810000  76.7920000  55.0390000
  61.2950000  89.7380000  89.5060000  61.1250000  90.4150000  88.2820000
  60.3190000  89.7430000  90.5100000  62.5390000  89.0090000  89.7380000
  60.3240000  90.9030000  88.1300000  62.0970000  90.3880000  87.2920000
  59.5060000  90.2160000  90.3790000  60.4900000  89.0630000  91.7230000
  63.5240000  89.0040000  88.7190000  62.7100000  88.3290000  90.9510000
  63.3280000  89.6630000  87.5180000  61.9250000  91.0480000  86.0380000
  59.5060000  89.0680000  92.7420000  61.7340000  88.3340000  91.9550000
  64.3380000  88.5370000  88.8640000  63.5230000  87.8570000  91.0820000
  64.3120000  89.6470000  86.4810000  61.1230000  91.5290000  85.8720000
  62.8830000  91.0050000  85.0800000  59.7010000  88.4090000  93.9420000
  58.6910000  89.5360000  92.5970000  61.9040000  87.6570000  93.1790000
  64.1010000  90.2900000  85.3090000  65.1270000  89.1780000  86.6170000
  62.7450000  91.4500000  84.2520000  58.7170000  88.4260000  94.9800000
  60.9320000  87.6850000  94.1690000  62.7060000  87.1700000  93.3310000
  64.7670000  90.2670000  84.6320000  58.9280000  87.7820000  96.1520000
  57.9020000  88.8950000  94.8430000  61.1040000  87.0250000  95.4230000
  60.1460000  87.0680000  96.3810000  58.2620000  87.8060000  96.8280000
  61.9060000  86.5440000  95.5880000  60.2840000  86.6230000  97.2090000
  59.9640000  79.6290000  21.6710000  60.1340000  78.9520000  22.8950000
  60.9400000  79.6230000  20.6670000  58.7200000  80.3580000  21.4390000
  60.9350000  78.4640000  23.0470000  59.1620000  78.9790000  23.8850000
  61.7530000  79.1510000  20.7980000  60.7690000  80.3040000  19.4540000
  57.7350000  80.3630000  22.4580000  58.5490000  81.0380000  20.2260000
  57.9310000  79.7030000  23.6580000  59.3340000  78.3190000  25.1380000
  61.7530000  80.2990000  18.4350000  59.5250000  81.0330000  19.2220000
  56.9210000  80.8300000  22.3130000  57.7360000  81.5100000  20.0950000
  56.9470000  79.7200000  24.6960000  60.1360000  77.8380000  25.3040000
  58.3760000  78.3620000  26.0970000  61.5580000  80.9580000  17.2340000
  62.5680000  79.8310000  18.5800000  59.3550000  81.7090000  17.9980000
  57.1580000  79.0770000  25.8680000  56.1320000  80.1890000  24.5590000
  58.5140000  77.9170000  26.9250000  62.5420000  80.9410000  16.1970000
  60.3270000  81.6820000  17.0080000  58.5530000  82.1970000  17.8460000
  56.4920000  79.1000000  26.5440000  62.3310000  81.5850000  15.0250000
  63.3570000  80.4720000  16.3330000  60.1550000  82.3420000  15.7540000
  61.1130000  82.2990000  14.7950000  62.9970000  81.5610000  14.3480000
  59.3530000  82.8230000  15.5880000  60.9750000  82.7440000  13.9670000
  60.9660000  86.1820000  49.7840000  61.1370000  85.5060000  51.0090000
  61.9420000  86.1770000  48.7810000  59.7220000  86.9110000  49.5520000
  61.9380000  85.0180000  51.1600000  60.1640000  85.5330000  51.9980000
  62.7560000  85.7050000  48.9110000  61.7720000  86.8570000  47.5670000
  58.7380000  86.9160000  50.5710000  59.5520000  87.5920000  48.3390000
  58.9340000  86.2570000  51.7720000  60.3360000  84.8730000  53.2520000
  62.7560000  86.8520000  46.5480000  60.5270000  87.5860000  47.3360000
  57.9240000  87.3840000  50.4270000  58.7380000  88.0640000  48.2080000
  57.9490000  86.2740000  52.8090000  61.1390000  84.3920000  53.4180000
  59.3780000  84.9160000  54.2110000  62.5600000  87.5120000  45.3480000
  63.5700000  86.3850000  46.6930000  60.3570000  88.2630000  46.1110000
  58.1610000  85.6300000  53.9820000  57.1350000  86.7430000  52.6730000
  59.5170000  84.4710000  55.0390000  63.5450000  87.4950000  44.3110000
  61.3300000  88.2360000  45.1220000  59.5560000  88.7510000  45.9590000
  57.4940000  85.6540000  54.6580000  63.3330000  88.1380000  43.1380000
  64.3590000  87.0260000  44.4470000  61.1580000  88.8960000  43.8680000
  62.1150000  88.8530000  42.9090000  64.0000000  88.1150000  42.4620000
  60.3550000  89.3770000  43.7020000  61.9770000  89.2980000  42.0810000
  61.0290000  90.8630000  61.3920000  60.8580000  91.5400000  60.1680000
  60.0530000  90.8680000  62.3960000  62.2730000  90.1340000  61.6240000
  60.0570000  92.0270000  60.0160000  61.8310000  91.5130000  59.1780000
  59.2390000  91.3410000  62.2650000  60.2240000  90.1880000  63.6090000
  63.2570000  90.1290000  60.6050000  62.4430000  89.4540000  62.8370000
  63.0620000  90.7880000  59.4050000  61.6590000  92.1730000  57.9250000
  59.2390000  90.1930000  64.6280000  61.4680000  89.4590000  63.8410000
  64.0710000  89.6620000  60.7500000  63.2570000  88.9810000  62.9680000
  64.0460000  90.7720000  58.3670000  60.8560000  92.6540000  57.7590000
  62.6170000  92.1300000  56.9660000  59.4350000  89.5340000  65.8290000
  58.4250000  90.6610000  64.4830000  61.6380000  88.7820000  65.0650000
  63.8350000  91.4150000  57.1950000  64.8600000  90.3030000  58.5040000
  62.4780000  92.5750000  56.1380000  58.4510000  89.5510000  66.8660000
  60.6660000  88.8100000  66.0550000  62.4390000  88.2950000  65.2170000
  64.5010000  91.3920000  56.5190000  58.6620000  88.9070000  68.0380000
  57.6360000  90.0200000  66.7300000  60.8370000  88.1500000  67.3090000
  59.8800000  88.1930000  68.2680000  57.9950000  88.9300000  68.7150000
  61.6400000  87.6690000  67.4750000  60.0180000  87.7480000  69.0960000
  61.5300000  94.1400000  75.4490000  61.3600000  94.8170000  74.2250000
  60.5540000  94.1450000  76.4530000  62.7740000  93.4110000  75.6810000
  60.5580000  95.3040000  74.0730000  62.3320000  94.7900000  73.2350000
  59.7410000  94.6180000  76.3220000  60.7250000  93.4650000  77.6660000
  63.7580000  93.4060000  74.6620000  62.9450000  92.7310000  76.8940000
  63.5630000  94.0650000  73.4620000  62.1600000  95.4490000  71.9810000
  59.7400000  93.4700000  78.6850000  61.9690000  92.7360000  77.8980000
  64.5730000  92.9380000  74.8070000  63.7580000  92.2580000  77.0250000
  64.5470000  94.0480000  72.4240000  61.3580000  95.9310000  71.8150000
  63.1180000  95.4060000  71.0230000  59.9360000  92.8110000  79.8860000
  58.9260000  93.9380000  78.5400000  62.1390000  92.0590000  79.1220000
  64.3360000  94.6920000  71.2520000  65.3620000  93.5800000  72.5610000
  62.9800000  95.8510000  70.1950000  58.9520000  92.8280000  80.9230000
  61.1670000  92.0860000  80.1120000  62.9410000  91.5720000  79.2740000
  65.0020000  94.6690000  70.5760000  59.1630000  92.1840000  82.0950000
  58.1370000  93.2960000  80.7870000  61.3390000  91.4270000  81.3660000
  60.3810000  91.4700000  82.3240000  58.4970000  92.2070000  82.7710000
  62.1410000  90.9450000  81.5320000  60.5190000  91.0250000  83.1520000
  60.4650000  82.9050000  35.7270000  60.6360000  82.2290000  36.9520000
  61.4410000  82.9000000  34.7240000  59.2210000  83.6350000  35.4960000
  61.4370000  81.7410000  37.1040000  59.6630000  82.2560000  37.9410000
  62.2550000  82.4280000  34.8550000  61.2700000  83.5800000  33.5110000
  58.2370000  83.6400000  36.5150000  59.0500000  84.3150000  34.2820000
  58.4320000  82.9800000  37.7150000  59.8350000  81.5960000  39.1950000
  62.2550000  83.5750000  32.4920000  60.0260000  84.3100000  33.2790000
  57.4220000  84.1070000  36.3700000  58.2370000  84.7870000  34.1520000
  57.4480000  82.9970000  38.7520000  60.6370000  81.1150000  39.3610000
  58.8770000  81.6390000  40.1540000  62.0590000  84.2350000  31.2910000
  63.0690000  83.1080000  32.6360000  59.8560000  84.9860000  32.0540000
  57.6590000  82.3540000  39.9250000  56.6330000  83.4660000  38.6160000
  59.0160000  81.1940000  40.9820000  63.0430000  84.2180000  30.2540000
  60.8280000  84.9590000  31.0650000  59.0550000  85.4740000  31.9030000
  56.9930000  82.3770000  40.6010000  62.8320000  84.8610000  29.0810000
  63.8580000  83.7490000  30.3900000  60.6570000  85.6190000  29.8110000
  61.6140000  85.5760000  28.8520000  63.4990000  84.8380000  28.4050000
  59.8540000  86.1000000  29.6450000  61.4760000  86.0210000  28.0240000
  59.4630000  76.3520000   7.6140000  59.6330000  75.6750000   8.8380000
  60.4380000  76.3470000   6.6100000  58.2190000  77.0810000   7.3820000
  60.4340000  75.1880000   8.9900000  58.6600000  75.7020000   9.8280000
  61.2520000  75.8740000   6.7410000  60.2680000  77.0270000   5.3970000
  57.2340000  77.0860000   8.4010000  58.0480000  77.7610000   6.1690000
  57.4300000  76.4270000   9.6010000  58.8320000  75.0420000  11.0820000
  61.2520000  77.0220000   4.3780000  59.0240000  77.7560000   5.1650000
  56.4200000  77.5540000   8.2560000  57.2340000  78.2340000   6.0380000
  56.4460000  76.4430000  10.6390000  59.6350000  74.5610000  11.2470000
  57.8750000  75.0850000  12.0400000  61.0570000  77.6810000   3.1770000
  62.0660000  76.5540000   4.5230000  58.8530000  78.4330000   3.9410000
  56.6570000  75.8000000  11.8110000  55.6310000  76.9120000  10.5020000
  58.0130000  74.6400000  12.8680000  62.0410000  77.6640000   2.1400000
  59.8260000  78.4050000   2.9510000  58.0520000  78.9200000   3.7890000
  55.9900000  75.8230000  12.4870000  61.8300000  78.3080000   0.9680000
  62.8550000  77.1950000   2.2760000  59.6540000  79.0650000   1.6970000
  60.6120000  79.0220000   0.7390000  62.4960000  78.2850000   0.2920000
  58.8510000  79.5460000   1.5310000  60.4730000  79.4670000  -0.0890000
  62.0310000  97.4170000  89.5060000  61.8610000  98.0940000  88.2820000
  61.0550000  97.4220000  90.5100000  63.2750000  96.6880000  89.7380000
  61.0600000  98.5810000  88.1300000  62.8330000  98.0660000  87.2920000
  60.2420000  97.8950000  90.3790000  61.2260000  96.7420000  91.7230000
  64.2600000  96.6830000  88.7190000  63.4460000  96.0080000  90.9510000
  64.0640000  97.3420000  87.5180000  62.6620000  98.7260000  86.0380000
  60.2420000  96.7470000  92.7420000  62.4700000  96.0130000  91.9550000
  65.0740000  96.2150000  88.8640000  64.2600000  95.5350000  91.0820000
  65.0480000  97.3250000  86.4810000  61.8590000  99.2070000  85.8720000
  63.6190000  98.6830000  85.0800000  60.4370000  96.0880000  93.9420000
  59.4270000  97.2140000  92.5970000  62.6410000  95.3360000  93.1790000
  64.8370000  97.9690000  85.3090000  65.8630000  96.8560000  86.6170000
  63.4810000  99.1280000  84.2520000  59.4530000  96.1040000  94.9800000
  61.6680000  95.3630000  94.1690000  63.4420000  94.8490000  93.3310000
  65.5040000  97.9460000  84.6320000  59.6640000  95.4610000  96.1520000
  58.6380000  96.5730000  94.8430000  61.8400000  94.7030000  95.4230000
  60.8820000  94.7460000  96.3810000  58.9980000  95.4840000  96.8280000
  62.6420000  94.2220000  95.5880000  61.0210000  94.3010000  97.2090000
  54.3410000  17.0750000  49.7840000  54.5120000  16.3980000  51.0090000
  55.3170000  17.0700000  48.7810000  53.0970000  17.8040000  49.5520000
  55.3130000  15.9110000  51.1600000  53.5390000  16.4250000  51.9980000
  56.1310000  16.5970000  48.9110000  55.1470000  17.7500000  47.5670000
  52.1130000  17.8090000  50.5710000  52.9270000  18.4840000  48.3390000
  52.3080000  17.1500000  51.7720000  53.7110000  15.7660000  53.2520000
  56.1310000  17.7450000  46.5480000  53.9020000  18.4790000  47.3360000
  51.2990000  18.2770000  50.4270000  52.1130000  18.9570000  48.2080000
  51.3240000  17.1670000  52.8090000  54.5140000  15.2840000  53.4180000
  52.7530000  15.8090000  54.2110000  55.9350000  18.4040000  45.3480000
  56.9450000  17.2770000  46.6930000  53.7320000  19.1560000  46.1110000
  51.5350000  16.5230000  53.9820000  50.5100000  17.6350000  52.6730000
  52.8920000  15.3630000  55.0390000  56.9190000  18.3870000  44.3110000
  54.7050000  19.1290000  45.1220000  52.9310000  19.6430000  45.9590000
  50.8690000  16.5460000  54.6580000  56.7080000  19.0310000  43.1380000
  57.7340000  17.9190000  44.4470000  54.5330000  19.7880000  43.8680000
  55.4900000  19.7450000  42.9090000  57.3750000  19.0080000  42.4620000
  53.7300000  20.2700000  43.7020000  55.3520000  20.1900000  42.0810000
  55.0770000  24.7540000  49.7840000  55.2480000  24.0770000  51.0090000
  56.0530000  24.7480000  48.7810000  53.8330000  25.4830000  49.5520000
  56.0490000  23.5890000  51.1600000  54.2750000  24.1040000  51.9980000
  56.8670000  24.2760000  48.9110000  55.8830000  25.4280000  47.5670000
  52.8490000  25.4880000  50.5710000  53.6630000  26.1630000  48.3390000
  53.0450000  24.8280000  51.7720000  54.4470000  23.4440000  53.2520000
  56.8670000  25.4240000  46.5480000  54.6390000  26.1580000  47.3360000
  52.0350000  25.9550000  50.4270000  52.8490000  26.6350000  48.2080000
  52.0600000  24.8450000  52.8090000  55.2500000  22.9630000  53.4180000
  53.4890000  23.4870000  54.2110000  56.6710000  26.0830000  45.3480000
  57.6810000  24.9560000  46.6930000  54.4680000  26.8340000  46.1110000
  52.2720000  24.2020000  53.9820000  51.2460000  25.3140000  52.6730000
  53.6280000  23.0420000  55.0390000  57.6560000  26.0660000  44.3110000
  55.4410000  26.8070000  45.1220000  53.6670000  27.3220000  45.9590000
  51.6050000  24.2250000  54.6580000  57.4440000  26.7100000  43.1380000
  58.4700000  25.5970000  44.4470000  55.2690000  27.4670000  43.8680000
  56.2270000  27.4240000  42.9090000  58.1110000  26.6860000  42.4620000
  54.4660000  27.9480000  43.7020000  56.0880000  27.8690000  42.0810000
  56.3770000  40.3900000  75.4490000  56.2070000  41.0670000  74.2250000
  55.4010000  40.3950000  76.4530000  57.6210000  39.6610000  75.6810000
  55.4060000  41.5540000  74.0730000  57.1790000  41.0390000  73.2350000
  54.5880000  40.8680000  76.3220000  55.5720000  39.7150000  77.6660000
  58.6060000  39.6560000  74.6620000  57.7920000  38.9810000  76.8940000
  58.4100000  40.3150000  73.4620000  57.0070000  41.6990000  71.9810000
  54.5880000  39.7200000  78.6850000  56.8160000  38.9860000  77.8980000
  59.4200000  39.1880000  74.8070000  58.6050000  38.5080000  77.0250000
  59.3940000  40.2980000  72.4240000  56.2050000  42.1800000  71.8150000
  57.9650000  41.6560000  71.0230000  54.7830000  39.0610000  79.8860000
  53.7730000  40.1870000  78.5400000  56.9870000  38.3090000  79.1220000
  59.1830000  40.9420000  71.2520000  60.2090000  39.8290000  72.5610000
  57.8270000  42.1010000  70.1950000  53.7990000  39.0770000  80.9230000
  56.0140000  38.3360000  80.1120000  57.7880000  37.8220000  79.2740000
  59.8500000  40.9190000  70.5760000  54.0100000  38.4340000  82.0950000
  52.9840000  39.5460000  80.7870000  56.1860000  37.6760000  81.3660000
  55.2280000  37.7190000  82.3240000  53.3440000  38.4570000  82.7710000
  56.9880000  37.1950000  81.5320000  55.3660000  37.2740000  83.1520000
  58.7580000  63.1460000  49.7840000  58.9280000  62.4700000  51.0090000
  59.7340000  63.1410000  48.7810000  57.5140000  63.8760000  49.5520000
  59.7300000  61.9820000  51.1600000  57.9560000  62.4970000  51.9980000
  60.5470000  62.6690000  48.9110000  59.5630000  63.8210000  47.5670000
  56.5300000  63.8810000  50.5710000  57.3430000  64.5560000  48.3390000
  56.7250000  63.2210000  51.7720000  58.1280000  61.8370000  53.2520000
  60.5480000  63.8170000  46.5480000  58.3190000  64.5510000  47.3360000
  55.7150000  64.3480000  50.4270000  56.5300000  65.0280000  48.2080000
  55.7410000  63.2380000  52.8090000  58.9300000  61.3560000  53.4180000
  57.1700000  61.8800000  54.2110000  60.3520000  64.4760000  45.3480000
  61.3620000  63.3490000  46.6930000  58.1490000  65.2270000  46.1110000
  55.9520000  62.5950000  53.9820000  54.9260000  63.7070000  52.6730000
  57.3080000  61.4350000  55.0390000  61.3360000  64.4590000  44.3110000
  59.1210000  65.2000000  45.1220000  57.3470000  65.7150000  45.9590000
  55.2860000  62.6180000  54.6580000  61.1250000  65.1020000  43.1380000
  62.1510000  63.9900000  44.4470000  58.9490000  65.8600000  43.8680000
  59.9070000  65.8170000  42.9090000  61.7910000  65.0790000  42.4620000
  58.1470000  66.3410000  43.7020000  59.7690000  66.2620000  42.0810000
  59.4940000  70.8250000  49.7840000  59.6650000  70.1480000  51.0090000
  60.4700000  70.8200000  48.7810000  58.2500000  71.5540000  49.5520000
  60.4660000  69.6610000  51.1600000  58.6920000  70.1760000  51.9980000
  61.2840000  70.3470000  48.9110000  60.2990000  71.5000000  47.5670000
  57.2660000  71.5590000  50.5710000  58.0790000  72.2340000  48.3390000
  57.4610000  70.9000000  51.7720000  58.8640000  69.5160000  53.2520000
  61.2840000  71.4950000  46.5480000  59.0550000  72.2290000  47.3360000
  56.4510000  72.0270000  50.4270000  57.2660000  72.7070000  48.2080000
  56.4770000  70.9170000  52.8090000  59.6660000  69.0350000  53.4180000
  57.9060000  69.5590000  54.2110000  61.0880000  72.1540000  45.3480000
  62.0980000  71.0270000  46.6930000  58.8850000  72.9060000  46.1110000
  56.6880000  70.2730000  53.9820000  55.6620000  71.3860000  52.6730000
  58.0450000  69.1140000  55.0390000  62.0720000  72.1380000  44.3110000
  59.8570000  72.8790000  45.1220000  58.0840000  73.3930000  45.9590000
  56.0220000  70.2960000  54.6580000  61.8610000  72.7810000  43.1380000
  62.8870000  71.6690000  44.4470000  59.6860000  73.5390000  43.8680000
  60.6430000  73.4960000  42.9090000  62.5280000  72.7580000  42.4620000
  58.8830000  74.0200000  43.7020000  60.5050000  73.9410000  42.0810000
  58.2880000  70.0770000   5.1650000  58.1170000  70.7540000   3.9410000
  57.3120000  70.0820000   6.1690000  59.5320000  69.3480000   5.3970000
  57.3160000  71.2420000   3.7890000  59.0900000  70.7270000   2.9510000
  56.4980000  70.5550000   6.0380000  57.4820000  69.4020000   7.3820000
  60.5160000  69.3430000   4.3780000  59.7020000  68.6680000   6.6100000
  60.3200000  70.0020000   3.1770000  58.9180000  71.3870000   1.6970000
  56.4980000  69.4070000   8.4010000  58.7260000  68.6730000   7.6140000
  61.3300000  68.8760000   4.5230000  60.5160000  68.1960000   6.7410000
  61.3050000  69.9860000   2.1400000  58.1150000  71.8680000   1.5310000
  59.8760000  71.3440000   0.7390000  56.6940000  68.7480000   9.6010000
  55.6840000  69.8750000   8.2560000  58.8970000  67.9960000   8.8380000
  61.0930000  70.6290000   0.9680000  62.1190000  69.5170000   2.2760000
  59.7370000  71.7890000  -0.0890000  55.7090000  68.7650000  10.6390000
  57.9240000  68.0240000   9.8280000  59.6980000  67.5090000   8.9900000
  61.7600000  70.6060000   0.2920000  55.9210000  68.1210000  11.8110000
  54.8950000  69.2340000  10.5020000  58.0960000  67.3640000  11.0820000
  57.1380000  67.4070000  12.0400000  55.2540000  68.1450000  12.4870000
  58.8990000  66.8830000  11.2470000  57.2770000  66.9620000  12.8680000
  60.2930000  83.1850000  61.3920000  60.1220000  83.8610000  60.1680000
  59.3170000  83.1900000  62.3960000  61.5370000  82.4550000  61.6240000
  59.3210000  84.3490000  60.0160000  61.0950000  83.8340000  59.1780000
  58.5030000  83.6620000  62.2650000  59.4870000  82.5100000  63.6090000
  62.5210000  82.4510000  60.6050000  61.7070000  81.7750000  62.8370000
  62.3250000  83.1100000  59.4050000  60.9230000  84.4940000  57.9250000
  58.5030000  82.5150000  64.6280000  60.7320000  81.7810000  63.8410000
  63.3350000  81.9830000  60.7500000  62.5210000  81.3030000  62.9680000
  63.3100000  83.0930000  58.3670000  60.1200000  84.9750000  57.7590000
  61.8810000  84.4510000  56.9660000  58.6990000  81.8550000  65.8290000
  57.6890000  82.9820000  64.4830000  60.9020000  81.1040000  65.0650000
  63.0980000  83.7370000  57.1950000  64.1240000  82.6240000  58.5040000
  61.7420000  84.8960000  56.1380000  57.7140000  81.8720000  66.8660000
  59.9290000  81.1310000  66.0550000  61.7030000  80.6160000  65.2170000
  63.7650000  83.7130000  56.5190000  57.9260000  81.2290000  68.0380000
  56.9000000  82.3410000  66.7300000  60.1010000  80.4710000  67.3090000
  59.1440000  80.5140000  68.2680000  57.2590000  81.2520000  68.7150000
  60.9040000  79.9900000  67.4750000  59.2820000  80.0690000  69.0960000
  60.7940000  86.4610000  75.4490000  60.6230000  87.1380000  74.2250000
  59.8180000  86.4670000  76.4530000  62.0380000  85.7320000  75.6810000
  59.8220000  87.6260000  74.0730000  61.5960000  87.1110000  73.2350000
  59.0040000  86.9390000  76.3220000  59.9890000  85.7860000  77.6660000
  63.0220000  85.7270000  74.6620000  62.2090000  85.0520000  76.8940000
  62.8270000  86.3870000  73.4620000  61.4240000  87.7710000  71.9810000
  59.0040000  85.7910000  78.6850000  61.2330000  85.0570000  77.8980000
  63.8370000  85.2600000  74.8070000  63.0220000  84.5800000  77.0250000
  63.8110000  86.3700000  72.4240000  60.6220000  88.2520000  71.8150000
  62.3820000  87.7280000  71.0230000  59.2000000  85.1320000  79.8860000
  58.1900000  86.2590000  78.5400000  61.4030000  84.3810000  79.1220000
  63.6000000  87.0130000  71.2520000  64.6260000  85.9010000  72.5610000
  62.2430000  88.1730000  70.1950000  58.2160000  85.1490000  80.9230000
  60.4310000  84.4080000  80.1120000  62.2040000  83.8930000  79.2740000
  64.2660000  86.9900000  70.5760000  58.4270000  84.5050000  82.0950000
  57.4010000  85.6180000  80.7870000  60.6020000  83.7480000  81.3660000
  59.6450000  83.7910000  82.3240000  57.7600000  84.5290000  82.7710000
  61.4050000  83.2670000  81.5320000  59.7830000  83.3460000  83.1520000
  54.4040000  21.7560000  61.3920000  54.2330000  22.4330000  60.1680000
  53.4280000  21.7610000  62.3960000  55.6480000  21.0270000  61.6240000
  53.4320000  22.9200000  60.0160000  55.2060000  22.4050000  59.1780000
  52.6140000  22.2330000  62.2650000  53.5980000  21.0810000  63.6090000
  56.6320000  21.0220000  60.6050000  55.8180000  20.3470000  62.8370000
  56.4360000  21.6810000  59.4050000  55.0340000  23.0650000  57.9250000
  52.6140000  21.0860000  64.6280000  54.8430000  20.3520000  63.8410000
  57.4460000  20.5540000  60.7500000  56.6320000  19.8740000  62.9680000
  57.4210000  21.6640000  58.3670000  54.2310000  23.5460000  57.7590000
  55.9920000  23.0220000  56.9660000  52.8100000  20.4270000  65.8290000
  51.8000000  21.5530000  64.4830000  55.0130000  19.6750000  65.0650000
  57.2100000  22.3080000  57.1950000  58.2350000  21.1950000  58.5040000
  55.8530000  23.4670000  56.1380000  51.8260000  20.4430000  66.8660000
  54.0400000  19.7020000  66.0550000  55.8140000  19.1880000  65.2170000
  57.8760000  22.2840000  56.5190000  52.0370000  19.8000000  68.0380000
  51.0110000  20.9120000  66.7300000  54.2120000  19.0420000  67.3090000
  53.2550000  19.0850000  68.2680000  51.3700000  19.8230000  68.7150000
  55.0150000  18.5610000  67.4750000  53.3930000  18.6400000  69.0960000
  53.1350000  16.3270000   5.1650000  52.9640000  17.0040000   3.9410000
  52.1590000  16.3320000   6.1690000  54.3790000  15.5980000   5.3970000
  52.1630000  17.4910000   3.7890000  53.9370000  16.9770000   2.9510000
  51.3450000  16.8050000   6.0380000  52.3300000  15.6520000   7.3820000
  55.3630000  15.5930000   4.3780000  54.5490000  14.9180000   6.6100000
  55.1680000  16.2520000   3.1770000  53.7650000  17.6360000   1.6970000
  51.3450000  15.6570000   8.4010000  53.5740000  14.9230000   7.6140000
  56.1770000  15.1250000   4.5230000  55.3630000  14.4450000   6.7410000
  56.1520000  16.2350000   2.1400000  52.9620000  18.1180000   1.5310000
  54.7230000  17.5930000   0.7390000  51.5410000  14.9980000   9.6010000
  50.5310000  16.1250000   8.2560000  53.7440000  14.2460000   8.8380000
  55.9410000  16.8790000   0.9680000  56.9660000  15.7670000   2.2760000
  54.5840000  18.0390000  -0.0890000  50.5570000  15.0150000  10.6390000
  52.7720000  14.2740000   9.8280000  54.5450000  13.7590000   8.9900000
  56.6070000  16.8560000   0.2920000  50.7680000  14.3710000  11.8110000
  49.7420000  15.4840000  10.5020000  52.9430000  13.6140000  11.0820000
  51.9860000  13.6570000  12.0400000  50.1010000  14.3940000  12.4870000
  53.7460000  13.1320000  11.2470000  52.1240000  13.2120000  12.8680000
  55.5790000  28.0300000  63.8410000  55.7490000  27.3540000  65.0650000
  56.5540000  28.0250000  62.8370000  54.3350000  28.7590000  63.6090000
  56.5500000  26.8660000  65.2170000  54.7770000  27.3810000  66.0550000
  57.3680000  27.5530000  62.9680000  56.3840000  28.7050000  61.6240000
  53.3500000  28.7640000  64.6280000  54.1640000  29.4400000  62.3960000
  53.5460000  28.1050000  65.8290000  54.9480000  26.7210000  67.3090000
  57.3680000  28.7000000  60.6050000  55.1400000  29.4340000  61.3920000
  52.5360000  29.2320000  64.4830000  53.3500000  29.9120000  62.2650000
  52.5620000  28.1220000  66.8660000  55.7510000  26.2400000  67.4750000
  53.9910000  26.7640000  68.2680000  57.1730000  29.3600000  59.4050000
  58.1830000  28.2330000  60.7500000  54.9690000  30.1110000  60.1680000
  52.7730000  27.4780000  68.0380000  51.7470000  28.5910000  66.7300000
  54.1290000  26.3190000  69.0960000  58.1570000  29.3430000  58.3670000
  55.9420000  30.0840000  59.1780000  54.1680000  30.5990000  60.0160000
  52.1060000  27.5020000  68.7150000  57.9460000  29.9860000  57.1950000
  58.9720000  28.8740000  58.5040000  55.7700000  30.7440000  57.9250000
  56.7280000  30.7010000  56.9660000  58.6120000  29.9630000  56.5190000
  54.9670000  31.2250000  57.7590000  56.5890000  31.1460000  56.1380000
  54.3100000  22.6020000   7.6140000  54.4800000  21.9250000   8.8380000
  55.2860000  22.5960000   6.6100000  53.0660000  23.3310000   7.3820000
  55.2810000  21.4370000   8.9900000  53.5080000  21.9520000   9.8280000
  56.0990000  22.1240000   6.7410000  55.1150000  23.2770000   5.3970000
  52.0810000  23.3360000   8.4010000  52.8950000  24.0110000   6.1690000
  52.2770000  22.6760000   9.6010000  53.6790000  21.2920000  11.0820000
  56.0990000  23.2720000   4.3780000  53.8710000  24.0060000   5.1650000
  51.2670000  23.8030000   8.2560000  52.0810000  24.4830000   6.0380000
  51.2930000  22.6930000  10.6390000  54.4820000  20.8110000  11.2470000
  52.7220000  21.3350000  12.0400000  55.9040000  23.9310000   3.1770000
  56.9140000  22.8040000   4.5230000  53.7000000  24.6820000   3.9410000
  51.5040000  22.0500000  11.8110000  50.4780000  23.1620000  10.5020000
  52.8600000  20.8900000  12.8680000  56.8880000  23.9140000   2.1400000
  54.6730000  24.6550000   2.9510000  52.8990000  25.1700000   3.7890000
  50.8370000  22.0730000  12.4870000  56.6770000  24.5580000   0.9680000
  57.7030000  23.4450000   2.2760000  54.5010000  25.3150000   1.6970000
  55.4590000  25.2720000   0.7390000  57.3430000  24.5340000   0.2920000
  53.6990000  25.7960000   1.5310000  55.3200000  25.7170000  -0.0890000
  56.3150000  35.7090000  63.8410000  56.4850000  35.0320000  65.0650000
  57.2910000  35.7040000  62.8370000  55.0710000  36.4380000  63.6090000
  57.2860000  34.5450000  65.2170000  55.5130000  35.0590000  66.0550000
  58.1040000  35.2310000  62.9680000  57.1200000  36.3840000  61.6240000
  54.0860000  36.4430000  64.6280000  54.9000000  37.1180000  62.3960000
  54.2820000  35.7840000  65.8290000  55.6840000  34.4000000  67.3090000
  58.1040000  36.3790000  60.6050000  55.8760000  37.1130000  61.3920000
  53.2720000  36.9110000  64.4830000  54.0860000  37.5910000  62.2650000
  53.2980000  35.8010000  66.8660000  56.4870000  33.9180000  67.4750000
  54.7270000  34.4430000  68.2680000  57.9090000  37.0380000  59.4050000
  58.9190000  35.9110000  60.7500000  55.7050000  37.7900000  60.1680000
  53.5090000  35.1570000  68.0380000  52.4830000  36.2690000  66.7300000
  54.8650000  33.9980000  69.0960000  58.8930000  37.0210000  58.3670000
  56.6780000  37.7630000  59.1780000  54.9040000  38.2770000  60.0160000
  52.8420000  35.1800000  68.7150000  58.6820000  37.6650000  57.1950000
  59.7080000  36.5530000  58.5040000  56.5060000  38.4220000  57.9250000
  57.4640000  38.3790000  56.9660000  59.3480000  37.6420000  56.5190000
  55.7040000  38.9040000  57.7590000  57.3250000  38.8240000  56.1380000
  57.0510000  43.3880000  63.8410000  57.2210000  42.7110000  65.0650000
  58.0270000  43.3820000  62.8370000  55.8070000  44.1170000  63.6090000
  58.0230000  42.2230000  65.2170000  56.2490000  42.7380000  66.0550000
  58.8400000  42.9100000  62.9680000  57.8560000  44.0620000  61.6240000
  54.8220000  44.1220000  64.6280000  55.6360000  44.7970000  62.3960000
  55.0180000  43.4620000  65.8290000  56.4210000  42.0780000  67.3090000
  58.8400000  44.0580000  60.6050000  56.6120000  44.7920000  61.3920000
  54.0080000  44.5890000  64.4830000  54.8230000  45.2690000  62.2650000
  54.0340000  43.4790000  66.8660000  57.2230000  41.5970000  67.4750000
  55.4630000  42.1210000  68.2680000  58.6450000  44.7170000  59.4050000
  59.6550000  43.5900000  60.7500000  56.4420000  45.4680000  60.1680000
  54.2450000  42.8360000  68.0380000  53.2190000  43.9480000  66.7300000
  55.6010000  41.6760000  69.0960000  59.6290000  44.7000000  58.3670000
  57.4140000  45.4410000  59.1780000  55.6400000  45.9560000  60.0160000
  53.5790000  42.8590000  68.7150000  59.4180000  45.3440000  57.1950000
  60.4440000  44.2310000  58.5040000  57.2420000  46.1010000  57.9250000
  58.2000000  46.0580000  56.9660000  60.0840000  45.3200000  56.5190000
  56.4400000  46.5820000  57.7590000  58.0620000  46.5030000  56.1380000
  57.3480000  52.4700000  61.3920000  57.1780000  53.1470000  60.1680000
  56.3720000  52.4750000  62.3960000  58.5920000  51.7410000  61.6240000
  56.3770000  53.6340000  60.0160000  58.1500000  53.1200000  59.1780000
  55.5590000  52.9480000  62.2650000  56.5430000  51.7950000  63.6090000
  59.5770000  51.7360000  60.6050000  58.7630000  51.0610000  62.8370000
  59.3810000  52.3950000  59.4050000  57.9780000  53.7800000  57.9250000
  55.5590000  51.8000000  64.6280000  57.7870000  51.0660000  63.8410000
  60.3910000  51.2690000  60.7500000  59.5760000  50.5890000  62.9680000
  60.3650000  52.3790000  58.3670000  57.1760000  54.2610000  57.7590000
  58.9360000  53.7370000  56.9660000  55.7540000  51.1410000  65.8290000
  54.7440000  52.2680000  64.4830000  57.9570000  50.3890000  65.0650000
  60.1540000  53.0220000  57.1950000  61.1800000  51.9100000  58.5040000
  58.7980000  54.1820000  56.1380000  54.7700000  51.1580000  66.8660000
  56.9850000  50.4170000  66.0550000  58.7590000  49.9020000  65.2170000
  60.8200000  52.9990000  56.5190000  54.9810000  50.5140000  68.0380000
  53.9550000  51.6270000  66.7300000  57.1570000  49.7570000  67.3090000
  56.1990000  49.8000000  68.2680000  54.3150000  50.5370000  68.7150000
  57.9590000  49.2760000  67.4750000  56.3370000  49.3550000  69.0960000
  58.0840000  60.1490000  61.3920000  57.9140000  60.8260000  60.1680000
  57.1080000  60.1540000  62.3960000  59.3280000  59.4200000  61.6240000
  57.1130000  61.3130000  60.0160000  58.8860000  60.7980000  59.1780000
  56.2950000  60.6260000  62.2650000  57.2790000  59.4740000  63.6090000
  60.3130000  59.4150000  60.6050000  59.4990000  58.7400000  62.8370000
  60.1170000  60.0740000  59.4050000  58.7150000  61.4580000  57.9250000
  56.2950000  59.4790000  64.6280000  58.5230000  58.7450000  63.8410000
  61.1270000  58.9470000  60.7500000  60.3130000  58.2670000  62.9680000
  61.1010000  60.0570000  58.3670000  57.9120000  61.9390000  57.7590000
  59.6720000  61.4150000  56.9660000  56.4900000  58.8200000  65.8290000
  55.4800000  59.9460000  64.4830000  58.6940000  58.0680000  65.0650000
  60.8900000  60.7010000  57.1950000  61.9160000  59.5880000  58.5040000
  59.5340000  61.8600000  56.1380000  55.5060000  58.8360000  66.8660000
  57.7210000  58.0950000  66.0550000  59.4950000  57.5800000  65.2170000
  61.5570000  60.6770000  56.5190000  55.7170000  58.1930000  68.0380000
  54.6910000  59.3050000  66.7300000  57.8930000  57.4350000  67.3090000
  56.9350000  57.4780000  68.2680000  55.0510000  58.2160000  68.7150000
  58.6950000  56.9540000  67.4750000  57.0740000  57.0330000  69.0960000
  58.8200000  67.8270000  61.3920000  58.6500000  68.5040000  60.1680000
  57.8450000  67.8330000  62.3960000  60.0640000  67.0980000  61.6240000
  57.8490000  68.9920000  60.0160000  59.6230000  68.4770000  59.1780000
  57.0310000  68.3050000  62.2650000  58.0150000  67.1520000  63.6090000
  61.0490000  67.0930000  60.6050000  60.2350000  66.4180000  62.8370000
  60.8530000  67.7530000  59.4050000  59.4510000  69.1370000  57.9250000
  57.0310000  67.1570000  64.6280000  59.2590000  66.4230000  63.8410000
  61.8630000  66.6260000  60.7500000  61.0490000  65.9460000  62.9680000
  61.8370000  67.7360000  58.3670000  58.6480000  69.6180000  57.7590000
  60.4080000  69.0940000  56.9660000  57.2260000  66.4980000  65.8290000
  56.2170000  67.6250000  64.4830000  59.4300000  65.7470000  65.0650000
  61.6260000  68.3790000  57.1950000  62.6520000  67.2670000  58.5040000
  60.2700000  69.5390000  56.1380000  56.2420000  66.5150000  66.8660000
  58.4570000  65.7740000  66.0550000  60.2310000  65.2590000  65.2170000
  62.2930000  68.3560000  56.5190000  56.4530000  65.8710000  68.0380000
  55.4280000  66.9840000  66.7300000  58.6290000  65.1140000  67.3090000
  57.6710000  65.1570000  68.2680000  55.7870000  65.8950000  68.7150000
  59.4320000  64.6330000  67.4750000  57.8100000  64.7120000  69.0960000
  59.3220000  71.1040000  75.4490000  59.1510000  71.7810000  74.2250000
  58.3460000  71.1090000  76.4530000  60.5660000  70.3750000  75.6810000
  58.3500000  72.2690000  74.0730000  60.1240000  71.7540000  73.2350000
  57.5320000  71.5820000  76.3220000  58.5160000  70.4290000  77.6660000
  61.5500000  70.3700000  74.6620000  60.7360000  69.6950000  76.8940000
  61.3540000  71.0290000  73.4620000  59.9520000  72.4140000  71.9810000
  57.5320000  70.4340000  78.6850000  59.7610000  69.7000000  77.8980000
  62.3640000  69.9030000  74.8070000  61.5500000  69.2230000  77.0250000
  62.3390000  71.0130000  72.4240000  59.1490000  72.8950000  71.8150000
  60.9100000  72.3710000  71.0230000  57.7280000  69.7750000  79.8860000
  56.7180000  70.9020000  78.5400000  59.9310000  69.0230000  79.1220000
  62.1270000  71.6560000  71.2520000  63.1530000  70.5440000  72.5610000
  60.7710000  72.8160000  70.1950000  56.7440000  69.7920000  80.9230000
  58.9580000  69.0510000  80.1120000  60.7320000  68.5360000  79.2740000
  62.7940000  71.6330000  70.5760000  56.9550000  69.1480000  82.0950000
  55.9290000  70.2610000  80.7870000  59.1300000  68.3910000  81.3660000
  58.1730000  68.4340000  82.3240000  56.2880000  69.1720000  82.7710000
  59.9330000  67.9100000  81.5320000  58.3110000  67.9890000  83.1520000
  57.9900000  60.9950000   7.6140000  58.1610000  60.3180000   8.8380000
  58.9660000  60.9890000   6.6100000  56.7460000  61.7240000   7.3820000
  58.9620000  59.8300000   8.9900000  57.1880000  60.3450000   9.8280000
  59.7800000  60.5170000   6.7410000  58.7960000  61.6700000   5.3970000
  55.7620000  61.7290000   8.4010000  56.5760000  62.4040000   6.1690000
  55.9580000  61.0690000   9.6010000  57.3600000  59.6850000  11.0820000
  59.7800000  61.6650000   4.3780000  57.5510000  62.3990000   5.1650000
  54.9480000  62.1960000   8.2560000  55.7620000  62.8760000   6.0380000
  54.9730000  61.0860000  10.6390000  58.1630000  59.2040000  11.2470000
  56.4020000  59.7280000  12.0400000  59.5840000  62.3240000   3.1770000
  60.5940000  61.1970000   4.5230000  57.3810000  63.0750000   3.9410000
  55.1850000  60.4430000  11.8110000  54.1590000  61.5550000  10.5020000
  56.5410000  59.2830000  12.8680000  60.5690000  62.3070000   2.1400000
  58.3540000  63.0480000   2.9510000  56.5800000  63.5630000   3.7890000
  54.5180000  60.4660000  12.4870000  60.3570000  62.9510000   0.9680000
  61.3830000  61.8380000   2.2760000  58.1820000  63.7080000   1.6970000
  59.1390000  63.6650000   0.7390000  61.0240000  62.9270000   0.2920000
  57.3790000  64.1890000   1.5310000  59.0010000  64.1100000  -0.0890000
  59.5560000  75.5060000  61.3920000  59.3860000  76.1830000  60.1680000
  58.5810000  75.5110000  62.3960000  60.8010000  74.7770000  61.6240000
  58.5850000  76.6700000  60.0160000  60.3590000  76.1560000  59.1780000
  57.7670000  75.9840000  62.2650000  58.7510000  74.8310000  63.6090000
  61.7850000  74.7720000  60.6050000  60.9710000  74.0970000  62.8370000
  61.5890000  75.4310000  59.4050000  60.1870000  76.8150000  57.9250000
  57.7670000  74.8360000  64.6280000  59.9950000  74.1020000  63.8410000
  62.5990000  74.3040000  60.7500000  61.7850000  73.6240000  62.9680000
  62.5740000  75.4140000  58.3670000  59.3840000  77.2970000  57.7590000
  61.1440000  76.7720000  56.9660000  57.9630000  74.1770000  65.8290000
  56.9530000  75.3040000  64.4830000  60.1660000  73.4250000  65.0650000
  62.3620000  76.0580000  57.1950000  63.3880000  74.9460000  58.5040000
  61.0060000  77.2170000  56.1380000  56.9780000  74.1940000  66.8660000
  59.1930000  73.4520000  66.0550000  60.9670000  72.9380000  65.2170000
  63.0290000  76.0350000  56.5190000  57.1900000  73.5500000  68.0380000
  56.1640000  74.6620000  66.7300000  59.3650000  72.7930000  67.3090000
  58.4070000  72.8360000  68.2680000  56.5230000  73.5730000  68.7150000
  60.1680000  72.3110000  67.4750000  58.5460000  72.3910000  69.0960000
  60.0580000  78.7830000  75.4490000  59.8870000  79.4600000  74.2250000
  59.0820000  78.7880000  76.4530000  61.3020000  78.0540000  75.6810000
  59.0860000  79.9470000  74.0730000  60.8600000  79.4320000  73.2350000
  58.2680000  79.2600000  76.3220000  59.2530000  78.1080000  77.6660000
  62.2860000  78.0490000  74.6620000  61.4720000  77.3740000  76.8940000
  62.0910000  78.7080000  73.4620000  60.6880000  80.0920000  71.9810000
  58.2680000  78.1130000  78.6850000  60.4970000  77.3790000  77.8980000
  63.1010000  77.5810000  74.8070000  62.2860000  76.9010000  77.0250000
  63.0750000  78.6910000  72.4240000  59.8850000  80.5730000  71.8150000
  61.6460000  80.0490000  71.0230000  58.4640000  77.4540000  79.8860000
  57.4540000  78.5800000  78.5400000  60.6670000  76.7020000  79.1220000
  62.8640000  79.3350000  71.2520000  63.8900000  78.2220000  72.5610000
  61.5070000  80.4940000  70.1950000  57.4800000  77.4700000  80.9230000
  59.6950000  76.7290000  80.1120000  61.4680000  76.2150000  79.2740000
  63.5300000  79.3120000  70.5760000  57.6910000  76.8270000  82.0950000
  56.6650000  77.9390000  80.7870000  59.8660000  76.0690000  81.3660000
  58.9090000  76.1120000  82.3240000  57.0240000  76.8500000  82.7710000
  60.6690000  75.5880000  81.5320000  59.0470000  75.6670000  83.1520000
  58.3840000  33.7820000  33.0920000  58.2280000  33.9020000  31.7000000
  57.4030000  33.2250000  33.9230000  59.6150000  34.2700000  33.6960000
  57.4260000  33.5840000  31.3000000  59.2040000  34.4670000  30.8900000
  56.5890000  32.9080000  33.5500000  57.5820000  33.1230000  35.3100000
  60.6070000  34.8420000  32.8640000  59.7940000  34.1680000  35.0840000
  60.4280000  34.9430000  31.4890000  59.0400000  34.5920000  29.4680000
  56.5900000  32.5510000  36.1420000  58.8130000  33.6110000  35.9140000
  61.4120000  35.1630000  33.2530000  60.6080000  34.4850000  35.4560000
  61.4240000  35.5290000  30.6260000  58.2400000  34.2860000  29.0560000
  60.0190000  35.1430000  28.7060000  56.7690000  32.4500000  37.5170000
  55.7850000  32.2300000  35.7530000  58.9700000  33.4920000  37.3060000
  61.2260000  35.6260000  29.2910000  62.2340000  35.8530000  31.0020000
  59.8980000  35.2080000  27.7660000  55.7730000  31.8640000  38.3800000
  57.9940000  32.9260000  38.1160000  59.7710000  33.8090000  37.7070000
  61.8950000  36.0180000  28.7410000  55.9710000  31.7670000  39.7150000
  54.9630000  31.5410000  38.0050000  58.1570000  32.8010000  39.5380000
  57.1780000  32.2500000  40.3000000  55.3030000  31.3760000  40.2650000
  58.9570000  33.1070000  39.9500000  57.3000000  32.1850000  41.2410000
  58.3120000  30.3340000  21.8580000  58.4680000  30.2150000  23.2490000
  59.2930000  30.8910000  21.0270000  57.0810000  29.8460000  21.2530000
  59.2700000  30.5320000  23.6500000  57.4920000  29.6490000  24.0590000
  60.1060000  31.2090000  21.3990000  59.1140000  30.9930000  19.6390000
  56.0890000  29.2750000  22.0850000  56.9020000  29.9480000  19.8660000
  56.2680000  29.1740000  23.4600000  57.6560000  29.5240000  25.4810000
  60.1050000  31.5650000  18.8070000  57.8830000  30.5050000  19.0350000
  55.2840000  28.9530000  21.6960000  56.0880000  29.6310000  19.4930000
  55.2720000  28.5880000  24.3230000  58.4560000  29.8310000  25.8930000
  56.6770000  28.9730000  26.2430000  59.9270000  31.6660000  17.4320000
  60.9110000  31.8860000  19.1970000  57.7260000  30.6250000  17.6430000
  55.4700000  28.4900000  25.6590000  54.4620000  28.2640000  23.9480000
  56.7980000  28.9080000  27.1840000  60.9230000  32.2520000  16.5690000
  58.7020000  31.1900000  16.8340000  56.9250000  30.3070000  17.2430000
  54.8010000  28.0990000  26.2080000  60.7250000  32.3490000  15.2340000
  61.7330000  32.5760000  16.9450000  58.5380000  31.3150000  15.4110000
  59.5170000  31.8670000  14.6490000  61.3930000  32.7410000  14.6840000
  57.7390000  31.0090000  14.9990000  59.3960000  31.9310000  13.7090000
  58.8850000  37.0590000  47.1490000  58.7290000  37.1790000  45.7570000
  57.9040000  36.5020000  47.9790000  60.1160000  37.5470000  47.7530000
  57.9270000  36.8610000  45.3560000  59.7050000  37.7440000  44.9470000
  57.0910000  36.1850000  47.6070000  58.0840000  36.4000000  49.3670000
  61.1080000  38.1190000  46.9210000  60.2950000  37.4450000  49.1400000
  60.9290000  38.2200000  45.5460000  59.5410000  37.8690000  43.5250000
  57.0920000  35.8280000  50.1990000  59.3140000  36.8880000  49.9710000
  61.9130000  38.4400000  47.3100000  61.1090000  37.7620000  49.5130000
  61.9250000  38.8060000  44.6830000  58.7410000  37.5630000  43.1130000
  60.5200000  38.4200000  42.7630000  57.2700000  35.7270000  51.5740000
  56.2860000  35.5070000  49.8100000  59.4710000  36.7680000  51.3630000
  61.7270000  38.9030000  43.3480000  62.7350000  39.1300000  45.0580000
  60.3990000  38.4850000  41.8220000  56.2740000  35.1410000  52.4370000
  58.4950000  36.2030000  52.1730000  60.2720000  37.0860000  51.7630000
  62.3960000  39.2950000  42.7980000  56.4720000  35.0440000  53.7720000
  55.4640000  34.8170000  52.0610000  58.6590000  36.0780000  53.5950000
  57.6800000  35.5270000  54.3570000  55.8040000  34.6520000  54.3220000
  59.4580000  36.3840000  54.0070000  57.8010000  35.4620000  55.2970000
  59.8160000  40.1650000  64.0280000  59.9720000  40.0450000  65.4200000
  60.7970000  40.7220000  63.1970000  58.5850000  39.6770000  63.4240000
  60.7730000  40.3630000  65.8200000  58.9960000  39.4800000  66.2290000
  61.6100000  41.0390000  63.5700000  60.6170000  40.8240000  61.8100000
  57.5930000  39.1050000  64.2560000  58.4050000  39.7790000  62.0360000
  57.7720000  39.0040000  65.6300000  59.1600000  39.3550000  67.6520000
  61.6090000  41.3950000  60.9780000  59.3870000  40.3360000  61.2050000
  56.7880000  38.7840000  63.8660000  57.5920000  39.4610000  61.6640000
  56.7760000  38.4180000  66.4940000  59.9600000  39.6610000  68.0640000
  58.1810000  38.8040000  68.4140000  61.4310000  41.4970000  59.6030000
  62.4150000  41.7170000  61.3670000  59.2300000  40.4550000  59.8140000
  56.9730000  38.3210000  67.8290000  55.9660000  38.0940000  66.1180000
  58.3020000  38.7390000  69.3540000  62.4270000  42.0820000  58.7400000
  60.2060000  41.0210000  59.0040000  58.4290000  40.1380000  59.4130000
  56.3050000  37.9290000  68.3790000  62.2290000  42.1800000  57.4040000
  63.2360000  42.4060000  59.1150000  60.0420000  41.1460000  57.5820000
  61.0210000  41.6970000  56.8200000  62.8970000  42.5710000  56.8550000
  59.2420000  40.8400000  57.1700000  60.9000000  41.7620000  55.8790000
  59.8880000  43.6130000  75.2620000  59.7310000  43.7320000  73.8710000
  58.9070000  43.0550000  76.0930000  61.1190000  44.1010000  75.8670000
  58.9300000  43.4150000  73.4700000  60.7070000  44.2970000  73.0610000
  58.0930000  42.7380000  75.7200000  59.0860000  42.9530000  77.4800000
  62.1110000  44.6720000  75.0350000  61.2980000  43.9990000  77.2540000
  61.9320000  44.7730000  73.6600000  60.5430000  44.4230000  71.6380000
  58.0940000  42.3820000  78.3130000  60.3170000  43.4410000  78.0850000
  62.9160000  44.9930000  75.4240000  62.1120000  44.3160000  77.6270000
  62.9280000  45.3590000  72.7970000  59.7440000  44.1160000  71.2270000
  61.5220000  44.9740000  70.8770000  58.2730000  42.2810000  79.6870000
  57.2890000  42.0610000  77.9230000  60.4730000  43.3220000  79.4760000
  62.7300000  45.4560000  71.4610000  63.7380000  45.6830000  73.1720000
  61.4010000  45.0390000  69.9360000  57.2770000  41.6950000  80.5500000
  59.4970000  42.7570000  80.2860000  61.2750000  43.6400000  79.8770000
  63.3980000  45.8480000  70.9120000  57.4750000  41.5980000  81.8860000
  56.4670000  41.3710000  80.1750000  59.6610000  42.6320000  81.7090000
  58.6820000  42.0800000  82.4710000  56.8060000  41.2060000  82.4350000
  60.4610000  42.9380000  82.1210000  58.8030000  42.0160000  83.4110000
  60.3890000  46.8900000  89.3190000  60.2330000  47.0090000  87.9270000
  59.4080000  46.3320000  90.1500000  61.6200000  47.3780000  89.9230000
  59.4310000  46.6910000  87.5270000  61.2090000  47.5740000  87.1180000
  58.5940000  46.0150000  89.7770000  59.5870000  46.2300000  91.5370000
  62.6120000  47.9490000  89.0910000  61.7990000  47.2760000  91.3110000
  62.4330000  48.0500000  87.7170000  61.0450000  47.7000000  85.6950000
  58.5950000  45.6590000  92.3690000  60.8180000  46.7180000  92.1420000
  63.4170000  48.2700000  89.4810000  62.6130000  47.5930000  91.6830000
  63.4290000  48.6360000  86.8530000  60.2450000  47.3930000  85.2830000
  62.0240000  48.2510000  84.9330000  58.7740000  45.5580000  93.7440000
  57.7900000  45.3380000  91.9800000  60.9750000  46.5990000  93.5330000
  63.2310000  48.7330000  85.5180000  64.2390000  48.9600000  87.2290000
  61.9030000  48.3160000  83.9930000  57.7780000  44.9720000  94.6070000
  59.9990000  46.0340000  94.3430000  61.7760000  46.9160000  93.9340000
  63.9000000  49.1250000  84.9680000  57.9760000  44.8750000  95.9430000
  56.9680000  44.6480000  94.2320000  60.1620000  45.9080000  95.7650000
  59.1830000  45.3570000  96.5270000  57.3080000  44.4830000  96.4920000
  60.9620000  46.2150000  96.1770000  59.3050000  45.2920000  97.4680000
  58.6190000  38.1840000  19.0350000  58.4620000  38.3030000  17.6430000
  57.6380000  37.6270000  19.8660000  59.8500000  38.6720000  19.6390000
  57.6610000  37.9860000  17.2430000  59.4380000  38.8690000  16.8340000
  56.8240000  37.3100000  19.4930000  57.8170000  37.5250000  21.2530000
  60.8420000  39.2440000  18.8070000  60.0290000  38.5700000  21.0270000
  60.6630000  39.3450000  17.4320000  59.2750000  38.9940000  15.4110000
  56.8250000  36.9530000  22.0850000  59.0480000  38.0130000  21.8580000
  61.6470000  39.5650000  19.1970000  60.8430000  38.8870000  21.3990000
  61.6590000  39.9310000  16.5690000  58.4750000  38.6880000  14.9990000
  60.2540000  39.5450000  14.6490000  57.0040000  36.8520000  23.4600000
  56.0200000  36.6320000  21.6960000  59.2040000  37.8930000  23.2490000
  61.4610000  40.0280000  15.2340000  62.4690000  40.2550000  16.9450000
  60.1320000  39.6100000  13.7090000  56.0080000  36.2660000  24.3230000
  58.2280000  37.3280000  24.0590000  60.0060000  38.2110000  23.6500000
  62.1290000  40.4190000  14.6840000  56.2060000  36.1690000  25.6590000
  55.1980000  35.9420000  23.9480000  58.3920000  37.2030000  25.4810000
  57.4130000  36.6520000  26.2430000  55.5370000  35.7770000  26.2080000
  59.1920000  37.5090000  25.8930000  57.5340000  36.5870000  27.1840000
  59.1200000  41.4610000  33.0920000  58.9640000  41.5800000  31.7000000
  58.1390000  40.9040000  33.9230000  60.3510000  41.9490000  33.6960000
  58.1620000  41.2630000  31.3000000  59.9400000  42.1460000  30.8900000
  57.3250000  40.5860000  33.5500000  58.3180000  40.8020000  35.3100000
  61.3430000  42.5200000  32.8640000  60.5300000  41.8470000  35.0840000
  61.1640000  42.6210000  31.4890000  59.7760000  42.2710000  29.4680000
  57.3260000  40.2300000  36.1420000  59.5490000  41.2900000  35.9140000
  62.1480000  42.8420000  33.2530000  61.3440000  42.1640000  35.4560000
  62.1600000  43.2070000  30.6260000  58.9760000  41.9640000  29.0560000
  60.7550000  42.8220000  28.7060000  57.5050000  40.1290000  37.5170000
  56.5210000  39.9090000  35.7530000  59.7060000  41.1700000  37.3060000
  61.9620000  43.3050000  29.2910000  62.9700000  43.5310000  31.0020000
  60.6340000  42.8870000  27.7660000  56.5090000  39.5430000  38.3800000
  58.7300000  40.6050000  38.1160000  60.5070000  41.4880000  37.7070000
  62.6310000  43.6960000  28.7410000  56.7070000  39.4460000  39.7150000
  55.6990000  39.2190000  38.0050000  58.8940000  40.4800000  39.5380000
  57.9150000  39.9290000  40.3000000  56.0390000  39.0540000  40.2650000
  59.6930000  40.7860000  39.9500000  58.0360000  39.8640000  41.2410000
  59.6210000  44.7380000  47.1490000  59.4650000  44.8570000  45.7570000
  58.6400000  44.1800000  47.9790000  60.8520000  45.2260000  47.7530000
  58.6640000  44.5400000  45.3560000  60.4410000  45.4220000  44.9470000
  57.8270000  43.8630000  47.6070000  58.8200000  44.0780000  49.3670000
  61.8440000  45.7970000  46.9210000  61.0320000  45.1240000  49.1400000
  61.6650000  45.8980000  45.5460000  60.2770000  45.5480000  43.5250000
  57.8280000  43.5070000  50.1990000  60.0500000  44.5660000  49.9710000
  62.6490000  46.1180000  47.3100000  61.8450000  45.4410000  49.5130000
  62.6610000  46.4840000  44.6830000  59.4770000  45.2410000  43.1130000
  61.2560000  46.0990000  42.7630000  58.0060000  43.4060000  51.5740000
  57.0220000  43.1860000  49.8100000  60.2070000  44.4470000  51.3630000
  62.4640000  46.5810000  43.3480000  63.4710000  46.8080000  45.0580000
  61.1350000  46.1640000  41.8220000  57.0100000  42.8200000  52.4370000
  59.2310000  43.8820000  52.1730000  61.0080000  44.7650000  51.7630000
  63.1320000  46.9730000  42.7980000  57.2080000  42.7230000  53.7720000
  56.2010000  42.4960000  52.0610000  59.3950000  43.7560000  53.5950000
  58.4160000  43.2050000  54.3570000  56.5400000  42.3310000  54.3220000
  60.1950000  44.0630000  54.0070000  58.5370000  43.1400000  55.2970000
  61.5540000  54.3970000  92.1420000  61.7110000  54.2770000  93.5330000
  62.5350000  54.9540000  91.3110000  60.3230000  53.9090000  91.5370000
  62.5120000  54.5950000  93.9340000  60.7350000  53.7120000  94.3430000
  63.3490000  55.2710000  91.6830000  62.3560000  55.0560000  89.9230000
  59.3320000  53.3370000  92.3690000  60.1440000  54.0110000  90.1500000
  59.5100000  53.2360000  93.7440000  60.8990000  53.5870000  95.7650000
  63.3480000  55.6280000  89.0910000  61.1250000  54.5680000  89.3190000
  58.5260000  53.0160000  91.9800000  59.3310000  53.6940000  89.7770000
  58.5140000  52.6500000  94.6070000  61.6980000  53.8930000  96.1770000
  59.9200000  53.0360000  96.5270000  63.1690000  55.7290000  87.7170000
  64.1530000  55.9490000  89.4810000  60.9690000  54.6880000  87.9270000
  58.7120000  52.5530000  95.9430000  57.7040000  52.3260000  94.2320000
  60.0410000  52.9710000  97.4680000  64.1650000  56.3150000  86.8530000
  61.9450000  55.2530000  87.1180000  60.1670000  54.3700000  87.5270000
  58.0440000  52.1620000  96.4920000  63.9670000  56.4120000  85.5180000
  64.9750000  56.6390000  87.2290000  61.7810000  55.3780000  85.6950000
  62.7600000  55.9290000  84.9330000  64.6360000  56.8040000  84.9680000
  60.9810000  55.0720000  85.2830000  62.6390000  55.9940000  83.9930000
  60.5520000  47.8430000  64.0280000  60.7080000  47.7240000  65.4200000
  61.5330000  48.4010000  63.1970000  59.3210000  47.3550000  63.4240000
  61.5100000  48.0410000  65.8200000  59.7320000  47.1590000  66.2290000
  62.3460000  48.7180000  63.5700000  61.3530000  48.5030000  61.8100000
  58.3290000  46.7840000  64.2560000  59.1420000  47.4570000  62.0360000
  58.5080000  46.6830000  65.6300000  59.8960000  47.0330000  67.6520000
  62.3450000  49.0740000  60.9780000  60.1230000  48.0150000  61.2050000
  57.5240000  46.4630000  63.8660000  58.3280000  47.1400000  61.6640000
  57.5120000  46.0970000  66.4940000  60.6960000  47.3400000  68.0640000
  58.9170000  46.4820000  68.4140000  62.1670000  49.1750000  59.6030000
  63.1510000  49.3950000  61.3670000  59.9660000  48.1340000  59.8140000
  57.7100000  46.0000000  67.8290000  56.7020000  45.7730000  66.1180000
  59.0380000  46.4170000  69.3540000  63.1630000  49.7610000  58.7400000
  60.9420000  48.6990000  59.0040000  59.1650000  47.8160000  59.4130000
  57.0410000  45.6080000  68.3790000  62.9650000  49.8580000  57.4040000
  63.9730000  50.0850000  59.1150000  60.7780000  48.8250000  57.5820000
  61.7570000  49.3760000  56.8200000  63.6330000  50.2500000  56.8550000
  59.9790000  48.5180000  57.1700000  61.6360000  49.4400000  55.8790000
  61.0530000  51.1200000  78.0850000  61.2090000  51.0010000  79.4760000
  62.0340000  51.6770000  77.2540000  59.8220000  50.6320000  77.4800000
  62.0110000  51.3180000  79.8770000  60.2330000  50.4350000  80.2860000
  62.8480000  51.9950000  77.6270000  61.8550000  51.7790000  75.8670000
  58.8300000  50.0610000  78.3130000  59.6430000  50.7340000  76.0930000
  59.0090000  49.9590000  79.6870000  60.3970000  50.3100000  81.7090000
  62.8470000  52.3510000  75.0350000  60.6240000  51.2910000  75.2620000
  58.0250000  49.7390000  77.9230000  58.8290000  50.4170000  75.7200000
  58.0130000  49.3740000  80.5500000  61.1970000  50.6170000  82.1210000
  59.4180000  49.7590000  82.4710000  62.6680000  52.4520000  73.6600000
  63.6520000  52.6720000  75.4240000  60.4670000  51.4110000  73.8710000
  58.2110000  49.2760000  81.8860000  57.2030000  49.0500000  80.1750000
  59.5390000  49.6940000  83.4110000  63.6640000  53.0380000  72.7970000
  61.4430000  51.9760000  73.0610000  59.6660000  51.0930000  73.4700000
  57.5420000  48.8850000  82.4350000  63.4660000  53.1350000  71.4610000
  64.4740000  53.3620000  73.1720000  61.2800000  52.1010000  71.6380000
  62.2590000  52.6520000  70.8770000  64.1340000  53.5270000  70.9120000
  60.4800000  51.7950000  71.2270000  62.1370000  52.7170000  69.9360000
  60.2850000  48.9680000  35.9140000  60.4420000  48.8490000  37.3060000
  61.2660000  49.5250000  35.0840000  59.0540000  48.4800000  35.3100000
  61.2430000  49.1660000  37.7070000  59.4660000  48.2830000  38.1160000
  62.0800000  49.8430000  35.4560000  61.0870000  49.6270000  33.6960000
  58.0630000  47.9090000  36.1420000  58.8750000  48.5820000  33.9230000
  58.2410000  47.8080000  37.5170000  59.6300000  48.1580000  39.5380000
  62.0790000  50.1990000  32.8640000  59.8560000  49.1390000  33.0920000
  57.2570000  47.5870000  35.7530000  58.0620000  48.2650000  33.5500000
  57.2450000  47.2220000  38.3800000  60.4290000  48.4650000  39.9500000
  58.6510000  47.6070000  40.3000000  61.9000000  50.3000000  31.4890000
  62.8840000  50.5200000  33.2530000  59.7000000  49.2590000  31.7000000
  57.4430000  47.1240000  39.7150000  56.4350000  46.8980000  38.0050000
  58.7720000  47.5420000  41.2410000  62.8960000  50.8860000  30.6260000
  60.6760000  49.8240000  30.8900000  58.8980000  48.9410000  31.3000000
  56.7750000  46.7330000  40.2650000  62.6980000  50.9830000  29.2910000
  63.7060000  51.2100000  31.0020000  60.5120000  49.9490000  29.4680000
  61.4910000  50.5010000  28.7060000  63.3670000  51.3750000  28.7410000
  59.7120000  49.6430000  29.0560000  61.3700000  50.5650000  27.7660000
  60.8590000  55.6930000  61.2050000  60.7020000  55.8130000  59.8140000
  59.8780000  55.1360000  62.0360000  62.0900000  56.1810000  61.8100000
  59.9010000  55.4950000  59.4130000  61.6780000  56.3780000  59.0040000
  59.0640000  54.8190000  61.6640000  60.0570000  55.0340000  63.4240000
  63.0820000  56.7530000  60.9780000  62.2690000  56.0790000  63.1970000
  62.9030000  56.8540000  59.6030000  61.5140000  56.5030000  57.5820000
  59.0650000  54.4620000  64.2560000  61.2880000  55.5220000  64.0280000
  63.8870000  57.0740000  61.3670000  63.0820000  56.3960000  63.5700000
  63.8990000  57.4400000  58.7400000  60.7150000  56.1970000  57.1700000
  62.4930000  57.0540000  56.8200000  59.2440000  54.3610000  65.6300000
  58.2600000  54.1410000  63.8660000  61.4440000  55.4020000  65.4200000
  63.7010000  57.5370000  57.4040000  64.7090000  57.7640000  59.1150000
  62.3720000  57.1190000  55.8790000  58.2480000  53.7750000  66.4940000
  60.4680000  54.8370000  66.2290000  62.2460000  55.7200000  65.8200000
  64.3690000  57.9290000  56.8550000  58.4460000  53.6780000  67.8290000
  57.4380000  53.4510000  66.1180000  60.6320000  54.7120000  67.6520000
  59.6530000  54.1610000  68.4140000  57.7770000  53.2860000  68.3790000
  61.4320000  55.0180000  68.0640000  59.7740000  54.0960000  69.3540000
  59.7840000  45.6910000  21.8580000  59.9400000  45.5720000  23.2490000
  60.7650000  46.2490000  21.0270000  58.5530000  45.2030000  21.2530000
  60.7420000  45.8900000  23.6500000  58.9650000  45.0070000  24.0590000
  61.5790000  46.5660000  21.3990000  60.5860000  46.3510000  19.6390000
  57.5610000  44.6320000  22.0850000  58.3740000  45.3050000  19.8660000
  57.7400000  44.5310000  23.4600000  59.1280000  44.8810000  25.4810000
  61.5780000  46.9220000  18.8070000  59.3550000  45.8630000  19.0350000
  56.7560000  44.3110000  21.6960000  57.5600000  44.9880000  19.4930000
  56.7440000  43.9450000  24.3230000  59.9280000  45.1880000  25.8930000
  58.1490000  44.3300000  26.2430000  61.3990000  47.0230000  17.4320000
  62.3830000  47.2430000  19.1970000  59.1990000  45.9820000  17.6430000
  56.9420000  43.8480000  25.6590000  55.9340000  43.6210000  23.9480000
  58.2710000  44.2650000  27.1840000  62.3950000  47.6090000  16.5690000
  60.1740000  46.5470000  16.8340000  58.3970000  45.6640000  17.2430000
  56.2740000  43.4560000  26.2080000  62.1970000  47.7060000  15.2340000
  63.2050000  47.9330000  16.9450000  60.0110000  46.6730000  15.4110000
  60.9900000  47.2240000  14.6490000  62.8660000  48.0980000  14.6840000
  59.2110000  46.3660000  14.9990000  60.8690000  47.2890000  13.7090000
  60.7870000  52.2450000  49.9710000  60.9430000  52.1260000  51.3630000
  61.7680000  52.8020000  49.1400000  59.5560000  51.7570000  49.3670000
  61.7440000  52.4430000  51.7630000  59.9670000  51.5600000  52.1730000
  62.5810000  53.1200000  49.5130000  61.5880000  52.9040000  47.7530000
  58.5640000  51.1850000  50.1990000  59.3760000  51.8590000  47.9790000
  58.7430000  51.0840000  51.5740000  60.1310000  51.4350000  53.5950000
  62.5800000  53.4760000  46.9210000  60.3580000  52.4160000  47.1490000
  57.7590000  50.8640000  49.8100000  58.5630000  51.5420000  47.6070000
  57.7470000  50.4990000  52.4370000  60.9310000  51.7410000  54.0070000
  59.1520000  50.8840000  54.3570000  62.4020000  53.5770000  45.5460000
  63.3860000  53.7970000  47.3100000  60.2010000  52.5360000  45.7570000
  57.9440000  50.4010000  53.7720000  56.9370000  50.1750000  52.0610000
  59.2730000  50.8190000  55.2970000  63.3980000  54.1630000  44.6830000
  61.1770000  53.1010000  44.9470000  59.4000000  52.2180000  45.3560000
  57.2760000  50.0100000  54.3220000  63.2000000  54.2600000  43.3480000
  64.2070000  54.4870000  45.0580000  61.0130000  53.2260000  43.5250000
  61.9920000  53.7770000  42.7630000  63.8680000  54.6520000  42.7980000
  60.2130000  52.9200000  43.1130000  61.8710000  53.8420000  41.8220000
  61.7890000  58.7990000  78.0850000  61.9460000  58.6790000  79.4760000
  62.7700000  59.3560000  77.2540000  60.5580000  58.3110000  77.4800000
  62.7470000  58.9970000  79.8770000  60.9700000  58.1140000  80.2860000
  63.5840000  59.6730000  77.6270000  62.5910000  59.4580000  75.8670000
  59.5660000  57.7390000  78.3130000  60.3790000  58.4130000  76.0930000
  59.7450000  57.6380000  79.6870000  61.1330000  57.9890000  81.7090000
  63.5830000  60.0300000  75.0350000  61.3600000  58.9700000  75.2620000
  58.7610000  57.4180000  77.9230000  59.5650000  58.0950000  75.7200000
  58.7490000  57.0520000  80.5500000  61.9330000  58.2950000  82.1210000
  60.1540000  57.4380000  82.4710000  63.4040000  60.1310000  73.6600000
  64.3880000  60.3510000  75.4240000  61.2040000  59.0890000  73.8710000
  58.9470000  56.9550000  81.8860000  57.9390000  56.7280000  80.1750000
  60.2760000  57.3730000  83.4110000  64.4000000  60.7160000  72.7970000
  62.1800000  59.6550000  73.0610000  60.4020000  58.7720000  73.4700000
  58.2790000  56.5630000  82.4350000  64.2020000  60.8140000  71.4610000
  65.2100000  61.0400000  73.1720000  62.0160000  59.7800000  71.6380000
  62.9950000  60.3310000  70.8770000  64.8710000  61.2050000  70.9120000
  61.2160000  59.4740000  71.2270000  62.8740000  60.3960000  69.9360000
  61.8610000  62.2470000  89.3190000  61.7050000  62.3660000  87.9270000
  60.8800000  61.6890000  90.1500000  63.0920000  62.7350000  89.9230000
  60.9040000  62.0490000  87.5270000  62.6810000  62.9320000  87.1180000
  60.0670000  61.3720000  89.7770000  61.0600000  61.5880000  91.5370000
  64.0840000  63.3060000  89.0910000  63.2720000  62.6330000  91.3110000
  63.9050000  63.4070000  87.7170000  62.5170000  63.0570000  85.6950000
  60.0680000  61.0160000  92.3690000  62.2900000  62.0760000  92.1420000
  64.8890000  63.6270000  89.4810000  64.0850000  62.9500000  91.6830000
  64.9010000  63.9930000  86.8530000  61.7170000  62.7500000  85.2830000
  63.4960000  63.6080000  84.9330000  60.2460000  60.9150000  93.7440000
  59.2620000  60.6950000  91.9800000  62.4470000  61.9560000  93.5330000
  64.7030000  64.0900000  85.5180000  65.7110000  64.3170000  87.2290000
  63.3750000  63.6730000  83.9930000  59.2500000  60.3290000  94.6070000
  61.4710000  61.3910000  94.3430000  63.2480000  62.2740000  93.9340000
  65.3720000  64.4820000  84.9680000  59.4480000  60.2320000  95.9430000
  58.4400000  60.0050000  94.2320000  61.6350000  61.2660000  95.7650000
  60.6560000  60.7140000  96.5270000  58.7800000  59.8400000  96.4920000
  62.4340000  61.5720000  96.1770000  60.7770000  60.6500000  97.4680000
  62.2990000  76.5770000  19.0350000  62.1430000  76.6960000  17.6430000
  61.3180000  76.0200000  19.8660000  63.5300000  77.0650000  19.6390000
  61.3420000  76.3790000  17.2430000  63.1190000  77.2620000  16.8340000
  60.5050000  75.7030000  19.4930000  61.4980000  75.9180000  21.2530000
  64.5220000  77.6370000  18.8070000  63.7100000  76.9630000  21.0270000
  64.3440000  77.7380000  17.4320000  62.9550000  77.3870000  15.4110000
  60.5060000  75.3460000  22.0850000  62.7290000  76.4060000  21.8580000
  65.3280000  77.9580000  19.1970000  64.5230000  77.2800000  21.3990000
  65.3400000  78.3240000  16.5690000  62.1550000  77.0810000  14.9990000
  63.9340000  77.9380000  14.6490000  60.6840000  75.2450000  23.4600000
  59.7000000  75.0250000  21.6960000  62.8850000  76.2860000  23.2490000
  65.1420000  78.4210000  15.2340000  66.1490000  78.6470000  16.9450000
  63.8130000  78.0030000  13.7090000  59.6880000  74.6590000  24.3230000
  61.9090000  75.7210000  24.0590000  63.6860000  76.6040000  23.6500000
  65.8100000  78.8120000  14.6840000  59.8860000  74.5620000  25.6590000
  58.8790000  74.3350000  23.9480000  62.0730000  75.5960000  25.4810000
  61.0940000  75.0450000  26.2430000  59.2180000  74.1700000  26.2080000
  62.8730000  75.9020000  25.8930000  61.2150000  74.9800000  27.1840000
  62.8010000  79.8540000  33.0920000  62.6440000  79.9730000  31.7000000
  61.8200000  79.2970000  33.9230000  64.0320000  80.3420000  33.6960000
  61.8430000  79.6560000  31.3000000  63.6200000  80.5390000  30.8900000
  61.0060000  78.9790000  33.5500000  61.9990000  79.1950000  35.3100000
  65.0230000  80.9130000  32.8640000  64.2110000  80.2400000  35.0840000
  64.8450000  81.0140000  31.4890000  63.4560000  80.6640000  29.4680000
  61.0070000  78.6230000  36.1420000  63.2300000  79.6830000  35.9140000
  65.8290000  81.2350000  33.2530000  65.0240000  80.5570000  35.4560000
  65.8410000  81.6000000  30.6260000  62.6570000  80.3570000  29.0560000
  64.4350000  81.2150000  28.7060000  61.1860000  78.5220000  37.5170000
  60.2020000  78.3020000  35.7530000  63.3860000  79.5630000  37.3060000
  65.6430000  81.6980000  29.2910000  66.6510000  81.9240000  31.0020000
  64.3140000  81.2800000  27.7660000  60.1900000  77.9360000  38.3800000
  62.4100000  78.9980000  38.1160000  64.1880000  79.8810000  37.7070000
  66.3110000  82.0890000  28.7410000  60.3880000  77.8390000  39.7150000
  59.3800000  77.6120000  38.0050000  62.5740000  78.8730000  39.5380000
  61.5950000  78.3210000  40.3000000  59.7190000  77.4470000  40.2650000
  63.3740000  79.1790000  39.9500000  61.7160000  78.2570000  41.2410000
  63.3020000  83.1310000  47.1490000  63.1460000  83.2500000  45.7570000
  62.3210000  82.5730000  47.9790000  64.5330000  83.6190000  47.7530000
  62.3440000  82.9320000  45.3560000  64.1210000  83.8150000  44.9470000
  61.5070000  82.2560000  47.6070000  62.5000000  82.4710000  49.3670000
  65.5250000  84.1900000  46.9210000  64.7120000  83.5170000  49.1400000
  65.3460000  84.2910000  45.5460000  63.9580000  83.9410000  43.5250000
  61.5080000  81.9000000  50.1990000  63.7310000  82.9590000  49.9710000
  66.3300000  84.5110000  47.3100000  65.5260000  83.8340000  49.5130000
  66.3420000  84.8770000  44.6830000  63.1580000  83.6340000  43.1130000
  64.9370000  84.4920000  42.7630000  61.6870000  81.7990000  51.5740000
  60.7030000  81.5790000  49.8100000  63.8870000  82.8400000  51.3630000
  66.1440000  84.9740000  43.3480000  67.1520000  85.2010000  45.0580000
  64.8160000  84.5570000  41.8220000  60.6910000  81.2130000  52.4370000
  62.9120000  82.2750000  52.1730000  64.6890000  83.1580000  51.7630000
  66.8130000  85.3660000  42.7980000  60.8890000  81.1160000  53.7720000
  59.8810000  80.8890000  52.0610000  63.0750000  82.1490000  53.5950000
  62.0960000  81.5980000  54.3570000  60.2210000  80.7240000  54.3220000
  63.8750000  82.4560000  54.0070000  62.2180000  81.5330000  55.2970000
  63.8030000  86.4080000  61.2050000  63.6470000  86.5270000  59.8140000
  62.8220000  85.8500000  62.0360000  65.0340000  86.8950000  61.8100000
  62.8450000  86.2090000  59.4130000  64.6230000  87.0920000  59.0040000
  62.0090000  85.5330000  61.6640000  63.0010000  85.7480000  63.4240000
  66.0260000  87.4670000  60.9780000  65.2130000  86.7940000  63.1970000
  65.8470000  87.5680000  59.6030000  64.4590000  87.2170000  57.5820000
  62.0100000  85.1770000  64.2560000  64.2320000  86.2360000  64.0280000
  66.8310000  87.7880000  61.3670000  66.0270000  87.1110000  63.5700000
  66.8430000  88.1540000  58.7400000  63.6590000  86.9110000  57.1700000
  65.4380000  87.7690000  56.8200000  62.1880000  85.0760000  65.6300000
  61.2040000  84.8560000  63.8660000  64.3890000  86.1170000  65.4200000
  66.6450000  88.2510000  57.4040000  67.6530000  88.4780000  59.1150000
  65.3170000  87.8330000  55.8790000  61.1920000  84.4900000  66.4940000
  63.4130000  85.5520000  66.2290000  65.1900000  86.4340000  65.8200000
  67.3140000  88.6430000  56.8550000  61.3900000  84.3930000  67.8290000
  60.3820000  84.1660000  66.1180000  63.5770000  85.4260000  67.6520000
  62.5980000  84.8750000  68.4140000  60.7220000  84.0010000  68.3790000
  64.3760000  85.7330000  68.0640000  62.7190000  84.8100000  69.3540000
  64.7340000  89.5130000  78.0850000  64.8900000  89.3940000  79.4760000
  65.7150000  90.0700000  77.2540000  63.5030000  89.0250000  77.4800000
  65.6910000  89.7110000  79.8770000  63.9140000  88.8280000  80.2860000
  66.5280000  90.3880000  77.6270000  65.5350000  90.1720000  75.8670000
  62.5110000  88.4540000  78.3130000  63.3230000  89.1270000  76.0930000
  62.6900000  88.3520000  79.6870000  64.0780000  88.7030000  81.7090000
  66.5270000  90.7440000  75.0350000  64.3050000  89.6840000  75.2620000
  61.7060000  88.1320000  77.9230000  62.5100000  88.8100000  75.7200000
  61.6930000  87.7670000  80.5500000  64.8780000  89.0090000  82.1210000
  63.0990000  88.1520000  82.4710000  66.3490000  90.8450000  73.6600000
  67.3330000  91.0650000  75.4240000  64.1480000  89.8040000  73.8710000
  61.8910000  87.6690000  81.8860000  60.8840000  87.4430000  80.1750000
  63.2200000  88.0870000  83.4110000  67.3450000  91.4310000  72.7970000
  65.1240000  90.3690000  73.0610000  63.3470000  89.4860000  73.4700000
  61.2230000  87.2780000  82.4350000  67.1470000  91.5280000  71.4610000
  68.1540000  91.7550000  73.1720000  64.9600000  90.4940000  71.6380000
  65.9390000  91.0450000  70.8770000  67.8150000  91.9200000  70.9120000
  64.1600000  90.1880000  71.2270000  65.8180000  91.1100000  69.9360000
  64.8060000  92.9610000  89.3190000  64.6490000  93.0810000  87.9270000
  63.8250000  92.4040000  90.1500000  66.0370000  93.4490000  89.9230000
  63.8480000  92.7630000  87.5270000  65.6250000  93.6460000  87.1180000
  63.0110000  92.0870000  89.7770000  64.0040000  92.3020000  91.5370000
  67.0290000  94.0210000  89.0910000  66.2160000  93.3470000  91.3110000
  66.8500000  94.1220000  87.7170000  65.4610000  93.7710000  85.6950000
  63.0120000  91.7300000  92.3690000  65.2350000  92.7900000  92.1420000
  67.8340000  94.3420000  89.4810000  67.0290000  93.6640000  91.6830000
  67.8460000  94.7080000  86.8530000  64.6620000  93.4650000  85.2830000
  66.4400000  94.3220000  84.9330000  63.1910000  91.6290000  93.7440000
  62.2070000  91.4090000  91.9800000  65.3910000  92.6700000  93.5330000
  67.6480000  94.8050000  85.5180000  68.6560000  95.0320000  87.2290000
  66.3190000  94.3870000  83.9930000  62.1950000  91.0430000  94.6070000
  64.4150000  92.1050000  94.3430000  66.1930000  92.9880000  93.9340000
  68.3160000  95.1970000  84.9680000  62.3930000  90.9460000  95.9430000
  61.3850000  90.7190000  94.2320000  64.5790000  91.9800000  95.7650000
  63.6000000  91.4290000  96.5270000  61.7240000  90.5540000  96.4920000
  65.3790000  92.2860000  96.1770000  63.7210000  91.3640000  97.4680000
  63.4650000  84.0840000  21.8580000  63.6210000  83.9650000  23.2490000
  64.4460000  84.6420000  21.0270000  62.2340000  83.5960000  21.2530000
  64.4220000  84.2830000  23.6500000  62.6450000  83.4000000  24.0590000
  65.2590000  84.9590000  21.3990000  64.2660000  84.7440000  19.6390000
  61.2420000  83.0250000  22.0850000  62.0540000  83.6980000  19.8660000
  61.4210000  82.9240000  23.4600000  62.8090000  83.2740000  25.4810000
  65.2580000  85.3150000  18.8070000  63.0360000  84.2560000  19.0350000
  60.4370000  82.7040000  21.6960000  61.2410000  83.3810000  19.4930000
  60.4250000  82.3380000  24.3230000  63.6090000  83.5810000  25.8930000
  61.8300000  82.7230000  26.2430000  65.0800000  85.4160000  17.4320000
  66.0640000  85.6360000  19.1970000  62.8790000  84.3750000  17.6430000
  60.6230000  82.2410000  25.6590000  59.6150000  82.0140000  23.9480000
  61.9510000  82.6580000  27.1840000  66.0760000  86.0020000  16.5690000
  63.8550000  84.9400000  16.8340000  62.0780000  84.0570000  17.2430000
  59.9540000  81.8490000  26.2080000  65.8780000  86.0990000  15.2340000
  66.8850000  86.3260000  16.9450000  63.6910000  85.0660000  15.4110000
  64.6700000  85.6170000  14.6490000  66.5460000  86.4910000  14.6840000
  62.8910000  84.7590000  14.9990000  64.5490000  85.6820000  13.7090000
  63.5370000  87.5320000  33.0920000  63.3800000  87.6520000  31.7000000
  62.5560000  86.9750000  33.9230000  64.7680000  88.0200000  33.6960000
  62.5790000  87.3340000  31.3000000  64.3560000  88.2170000  30.8900000
  61.7420000  86.6580000  33.5500000  62.7350000  86.8730000  35.3100000
  65.7600000  88.5920000  32.8640000  64.9470000  87.9180000  35.0840000
  65.5810000  88.6930000  31.4890000  64.1930000  88.3420000  29.4680000
  61.7430000  86.3020000  36.1420000  63.9660000  87.3610000  35.9140000
  66.5650000  88.9130000  33.2530000  65.7610000  88.2360000  35.4560000
  66.5770000  89.2790000  30.6260000  63.3930000  88.0360000  29.0560000
  65.1720000  88.8940000  28.7060000  61.9220000  86.2010000  37.5170000
  60.9380000  85.9800000  35.7530000  64.1220000  87.2420000  37.3060000
  66.3790000  89.3760000  29.2910000  67.3870000  89.6030000  31.0020000
  65.0500000  88.9580000  27.7660000  60.9260000  85.6150000  38.3800000
  63.1460000  86.6760000  38.1160000  64.9240000  87.5590000  37.7070000
  67.0470000  89.7680000  28.7410000  61.1240000  85.5170000  39.7150000
  60.1160000  85.2910000  38.0050000  63.3100000  86.5510000  39.5380000
  62.3310000  86.0000000  40.3000000  60.4550000  85.1260000  40.2650000
  64.1100000  86.8580000  39.9500000  62.4520000  85.9350000  41.2410000
  64.9680000  93.9150000  64.0280000  65.1250000  93.7950000  65.4200000
  65.9500000  94.4720000  63.1970000  63.7380000  93.4270000  63.4240000
  65.9260000  94.1130000  65.8200000  64.1490000  93.2300000  66.2290000
  66.7630000  94.7890000  63.5700000  65.7700000  94.5740000  61.8100000
  62.7460000  92.8550000  64.2560000  63.5580000  93.5290000  62.0360000
  62.9240000  92.7540000  65.6300000  64.3130000  93.1050000  67.6520000
  66.7620000  95.1460000  60.9780000  64.5390000  94.0860000  61.2050000
  61.9400000  92.5340000  63.8660000  62.7450000  93.2120000  61.6640000
  61.9280000  92.1680000  66.4940000  65.1130000  93.4110000  68.0640000
  63.3340000  92.5540000  68.4140000  66.5830000  95.2470000  59.6030000
  67.5670000  95.4670000  61.3670000  64.3830000  94.2060000  59.8140000
  62.1260000  92.0710000  67.8290000  61.1190000  91.8440000  66.1180000
  63.4550000  92.4890000  69.3540000  67.5790000  95.8330000  58.7400000
  65.3590000  94.7710000  59.0040000  63.5820000  93.8880000  59.4130000
  61.4580000  91.6790000  68.3790000  67.3810000  95.9300000  57.4040000
  68.3890000  96.1570000  59.1150000  65.1950000  94.8960000  57.5820000
  66.1740000  95.4470000  56.8200000  68.0500000  96.3220000  56.8550000
  64.3950000  94.5900000  57.1700000  66.0530000  95.5120000  55.8790000
  65.0410000  97.3630000  75.2620000  64.8840000  97.4820000  73.8710000
  64.0590000  96.8060000  76.0930000  66.2710000  97.8510000  75.8670000
  64.0830000  97.1650000  73.4700000  65.8600000  98.0480000  73.0610000
  63.2460000  96.4880000  75.7200000  64.2390000  96.7040000  77.4800000
  67.2630000  98.4220000  75.0350000  66.4510000  97.7490000  77.2540000
  67.0850000  98.5240000  73.6600000  65.6960000  98.1730000  71.6380000
  63.2470000  96.1320000  78.3130000  65.4700000  97.1920000  78.0850000
  68.0690000  98.7440000  75.4240000  67.2640000  98.0660000  77.6270000
  68.0810000  99.1090000  72.7970000  64.8970000  97.8670000  71.2270000
  66.6750000  98.7240000  70.8770000  63.4260000  96.0310000  79.6870000
  62.4420000  95.8110000  77.9230000  65.6260000  97.0720000  79.4760000
  67.8830000  99.2070000  71.4610000  68.8910000  99.4330000  73.1720000
  66.5540000  98.7890000  69.9360000  62.4300000  95.4450000  80.5500000
  64.6500000  96.5070000  80.2860000  66.4270000  97.3900000  79.8770000
  68.5510000  99.5980000  70.9120000  62.6280000  95.3480000  81.8860000
  61.6200000  95.1210000  80.1750000  64.8140000  96.3820000  81.7090000
  63.8350000  95.8310000  82.4710000  61.9590000  94.9560000  82.4350000
  65.6140000  96.6880000  82.1210000  63.9560000  95.7660000  83.4110000
  65.9710000 100.4680000  92.1420000  66.1270000 100.3490000  93.5330000
  66.9520000 101.0260000  91.3110000  64.7400000  99.9810000  91.5370000
  66.9290000 100.6670000  93.9340000  65.1510000  99.7840000  94.3430000
  67.7660000 101.3430000  91.6830000  66.7730000 101.1280000  89.9230000
  63.7480000  99.4090000  92.3690000  64.5610000 100.0820000  90.1500000
  63.9270000  99.3080000  93.7440000  65.3150000  99.6590000  95.7650000
  67.7650000 101.6990000  89.0910000  65.5420000 100.6400000  89.3190000
  62.9430000  99.0880000  91.9800000  63.7470000  99.7650000  89.7770000
  62.9310000  98.7220000  94.6070000  66.1150000  99.9650000  96.1770000
  64.3360000  99.1070000  96.5270000  67.5860000 101.8000000  87.7170000
  68.5700000 102.0200000  89.4810000  65.3850000 100.7590000  87.9270000
  63.1290000  98.6250000  95.9430000  62.1210000  98.3980000  94.2320000
  64.4570000  99.0430000  97.4680000  68.5820000 102.3860000  86.8530000
  66.3610000 101.3240000  87.1180000  64.5840000 100.4420000  87.5270000
  62.4600000  98.2330000  96.4920000  68.3840000 102.4830000  85.5180000
  69.3920000 102.7100000  87.2290000  66.1980000 101.4500000  85.6950000
  67.1770000 102.0010000  84.9330000  69.0520000 102.8750000  84.9680000
  65.3980000 101.1430000  85.2830000  67.0550000 102.0660000  83.9930000
  64.4670000  90.6380000  49.9710000  64.6240000  90.5190000  51.3630000
  65.4480000  91.1950000  49.1400000  63.2360000  90.1500000  49.3670000
  65.4250000  90.8360000  51.7630000  63.6480000  89.9530000  52.1730000
  66.2620000  91.5120000  49.5130000  65.2690000  91.2970000  47.7530000
  62.2440000  89.5780000  50.1990000  63.0570000  90.2520000  47.9790000
  62.4230000  89.4770000  51.5740000  63.8110000  89.8280000  53.5950000
  66.2610000  91.8690000  46.9210000  64.0380000  90.8090000  47.1490000
  61.4390000  89.2570000  49.8100000  62.2430000  89.9350000  47.6070000
  61.4270000  88.8920000  52.4370000  64.6110000  90.1340000  54.0070000
  62.8330000  89.2770000  54.3570000  66.0820000  91.9700000  45.5460000
  67.0660000  92.1900000  47.3100000  63.8820000  90.9290000  45.7570000
  61.6250000  88.7940000  53.7720000  60.6170000  88.5680000  52.0610000
  62.9540000  89.2120000  55.2970000  67.0780000  92.5560000  44.6830000
  64.8580000  91.4940000  44.9470000  63.0800000  90.6110000  45.3560000
  60.9570000  88.4030000  54.3220000  66.8800000  92.6530000  43.3480000
  67.8880000  92.8800000  45.0580000  64.6940000  91.6190000  43.5250000
  65.6730000  92.1700000  42.7630000  67.5490000  93.0450000  42.7980000
  63.8940000  91.3130000  43.1130000  65.5520000  92.2350000  41.8220000
  55.6740000   7.4700000  19.0350000  55.5180000   7.5890000  17.6430000
  54.6930000   6.9120000  19.8660000  56.9050000   7.9580000  19.6390000
  54.7170000   7.2710000  17.2430000  56.4940000   8.1540000  16.8340000
  53.8800000   6.5950000  19.4930000  54.8730000   6.8100000  21.2530000
  57.8970000   8.5290000  18.8070000  57.0850000   7.8560000  21.0270000
  57.7180000   8.6300000  17.4320000  56.3300000   8.2800000  15.4110000
  53.8810000   6.2390000  22.0850000  56.1030000   7.2980000  21.8580000
  58.7020000   8.8500000  19.1970000  57.8980000   8.1730000  21.3990000
  58.7140000   9.2160000  16.5690000  55.5300000   7.9730000  14.9990000
  57.3090000   8.8310000  14.6490000  54.0590000   6.1380000  23.4600000
  53.0750000   5.9180000  21.6960000  56.2600000   7.1790000  23.2490000
  58.5170000   9.3130000  15.2340000  59.5240000   9.5400000  16.9450000
  57.1880000   8.8960000  13.7090000  53.0630000   5.5520000  24.3230000
  55.2840000   6.6140000  24.0590000  57.0610000   7.4970000  23.6500000
  59.1850000   9.7050000  14.6840000  53.2610000   5.4550000  25.6590000
  52.2540000   5.2280000  23.9480000  55.4480000   6.4880000  25.4810000
  54.4690000   5.9370000  26.2430000  52.5930000   5.0630000  26.2080000
  56.2480000   6.7950000  25.8930000  54.5900000   5.8720000  27.1840000
  56.1760000  10.7460000  33.0920000  56.0190000  10.8660000  31.7000000
  55.1950000  10.1890000  33.9230000  57.4060000  11.2340000  33.6960000
  55.2180000  10.5480000  31.3000000  56.9950000  11.4310000  30.8900000
  54.3810000   9.8720000  33.5500000  55.3740000  10.0870000  35.3100000
  58.3980000  11.8060000  32.8640000  57.5860000  11.1320000  35.0840000
  58.2200000  11.9070000  31.4890000  56.8310000  11.5560000  29.4680000
  54.3820000   9.5160000  36.1420000  56.6050000  10.5750000  35.9140000
  59.2040000  12.1270000  33.2530000  58.3990000  11.4500000  35.4560000
  59.2160000  12.4930000  30.6260000  56.0320000  11.2500000  29.0560000
  57.8100000  12.1080000  28.7060000  54.5610000   9.4150000  37.5170000
  53.5770000   9.1950000  35.7530000  56.7610000  10.4560000  37.3060000
  59.0180000  12.5900000  29.2910000  60.0260000  12.8170000  31.0020000
  57.6890000  12.1720000  27.7660000  53.5650000   8.8290000  38.3800000
  55.7850000   9.8900000  38.1160000  57.5630000  10.7730000  37.7070000
  59.6860000  12.9820000  28.7410000  53.7630000   8.7320000  39.7150000
  52.7550000   8.5050000  38.0050000  55.9490000   9.7650000  39.5380000
  54.9700000   9.2140000  40.3000000  53.0940000   8.3400000  40.2650000
  56.7490000  10.0720000  39.9500000  55.0910000   9.1490000  41.2410000
  58.1810000  23.8540000  89.3190000  58.0240000  23.9730000  87.9270000
  57.2000000  23.2970000  90.1500000  59.4120000  24.3420000  89.9230000
  57.2230000  23.6560000  87.5270000  59.0000000  24.5390000  87.1180000
  56.3860000  22.9790000  89.7770000  57.3790000  23.1950000  91.5370000
  60.4030000  24.9130000  89.0910000  59.5910000  24.2400000  91.3110000
  60.2250000  25.0140000  87.7170000  58.8360000  24.6640000  85.6950000
  56.3870000  22.6230000  92.3690000  58.6100000  23.6830000  92.1420000
  61.2090000  25.2340000  89.4810000  60.4040000  24.5570000  91.6830000
  61.2210000  25.6000000  86.8530000  58.0370000  24.3570000  85.2830000
  59.8150000  25.2150000  84.9330000  56.5660000  22.5220000  93.7440000
  55.5820000  22.3020000  91.9800000  58.7660000  23.5630000  93.5330000
  61.0230000  25.6980000  85.5180000  62.0310000  25.9240000  87.2290000
  59.6940000  25.2800000  83.9930000  55.5700000  21.9360000  94.6070000
  57.7900000  22.9980000  94.3430000  59.5680000  23.8810000  93.9340000
  61.6910000  26.0890000  84.9680000  55.7680000  21.8390000  95.9430000
  54.7600000  21.6120000  94.2320000  57.9540000  22.8730000  95.7650000
  56.9750000  22.3210000  96.5270000  55.0990000  21.4470000  96.4920000
  58.7540000  23.1790000  96.1770000  57.0960000  22.2570000  97.4680000
  57.6070000  17.1290000  64.0280000  57.7640000  17.0090000  65.4200000
  58.5880000  17.6860000  63.1970000  56.3760000  16.6410000  63.4240000
  58.5650000  17.3270000  65.8200000  56.7880000  16.4440000  66.2290000
  59.4020000  18.0030000  63.5700000  58.4090000  17.7880000  61.8100000
  55.3850000  16.0690000  64.2560000  56.1970000  16.7430000  62.0360000
  55.5630000  15.9680000  65.6300000  56.9520000  16.3190000  67.6520000
  59.4010000  18.3600000  60.9780000  57.1780000  17.3000000  61.2050000
  54.5790000  15.7480000  63.8660000  55.3840000  16.4260000  61.6640000
  54.5670000  15.3820000  66.4940000  57.7510000  16.6250000  68.0640000
  55.9730000  15.7680000  68.4140000  59.2220000  18.4610000  59.6030000
  60.2060000  18.6810000  61.3670000  57.0220000  17.4200000  59.8140000
  54.7650000  15.2850000  67.8290000  53.7570000  15.0580000  66.1180000
  56.0940000  15.7030000  69.3540000  60.2180000  19.0470000  58.7400000
  57.9980000  17.9850000  59.0040000  56.2200000  17.1020000  59.4130000
  54.0970000  14.8930000  68.3790000  60.0200000  19.1440000  57.4040000
  61.0280000  19.3710000  59.1150000  57.8340000  18.1100000  57.5820000
  58.8130000  18.6610000  56.8200000  60.6890000  19.5360000  56.8550000
  57.0340000  17.8040000  57.1700000  58.6920000  18.7260000  55.8790000
  58.1090000  20.4060000  78.0850000  58.2650000  20.2860000  79.4760000
  59.0900000  20.9630000  77.2540000  56.8780000  19.9180000  77.4800000
  59.0660000  20.6040000  79.8770000  57.2890000  19.7210000  80.2860000
  59.9030000  21.2800000  77.6270000  58.9100000  21.0650000  75.8670000
  55.8860000  19.3460000  78.3130000  56.6980000  20.0200000  76.0930000
  56.0640000  19.2450000  79.6870000  57.4530000  19.5960000  81.7090000
  59.9020000  21.6370000  75.0350000  57.6790000  20.5770000  75.2620000
  55.0800000  19.0250000  77.9230000  55.8850000  19.7020000  75.7200000
  55.0680000  18.6590000  80.5500000  58.2530000  19.9020000  82.1210000
  56.4740000  19.0450000  82.4710000  59.7240000  21.7380000  73.6600000
  60.7080000  21.9580000  75.4240000  57.5230000  20.6960000  73.8710000
  55.2660000  18.5620000  81.8860000  54.2590000  18.3350000  80.1750000
  56.5950000  18.9800000  83.4110000  60.7200000  22.3230000  72.7970000
  58.4990000  21.2620000  73.0610000  56.7220000  20.3790000  73.4700000
  54.5980000  18.1700000  82.4350000  60.5220000  22.4210000  71.4610000
  61.5290000  22.6470000  73.1720000  58.3350000  21.3870000  71.6380000
  59.3140000  21.9380000  70.8770000  61.1900000  22.8120000  70.9120000
  57.5350000  21.0810000  71.2270000  59.1930000  22.0030000  69.9360000
  56.6770000  14.0230000  47.1490000  56.5210000  14.1430000  45.7570000
  55.6960000  13.4660000  47.9790000  57.9080000  14.5110000  47.7530000
  55.7190000  13.8250000  45.3560000  57.4960000  14.7080000  44.9470000
  54.8820000  13.1490000  47.6070000  55.8750000  13.3640000  49.3670000
  58.9000000  15.0830000  46.9210000  58.0870000  14.4090000  49.1400000
  58.7210000  15.1840000  45.5460000  57.3330000  14.8330000  43.5250000
  54.8830000  12.7920000  50.1990000  57.1060000  13.8520000  49.9710000
  59.7050000  15.4040000  47.3100000  58.9010000  14.7270000  49.5130000
  59.7170000  15.7700000  44.6830000  56.5330000  14.5270000  43.1130000
  58.3120000  15.3840000  42.7630000  55.0620000  12.6910000  51.5740000
  54.0780000  12.4710000  49.8100000  57.2620000  13.7330000  51.3630000
  59.5190000  15.8670000  43.3480000  60.5270000  16.0940000  45.0580000
  58.1900000  15.4490000  41.8220000  54.0660000  12.1060000  52.4370000
  56.2860000  13.1670000  52.1730000  58.0640000  14.0500000  51.7630000
  60.1870000  16.2590000  42.7980000  54.2640000  12.0080000  53.7720000
  53.2560000  11.7820000  52.0610000  56.4500000  13.0420000  53.5950000
  55.4710000  12.4910000  54.3570000  53.5950000  11.6170000  54.3220000
  57.2500000  13.3480000  54.0070000  55.5920000  12.4260000  55.2970000
  56.4110000  15.1480000  19.0350000  56.2540000  15.2680000  17.6430000
  55.4290000  14.5910000  19.8660000  57.6410000  15.6360000  19.6390000
  55.4530000  14.9500000  17.2430000  57.2300000  15.8330000  16.8340000
  54.6160000  14.2740000  19.4930000  55.6090000  14.4890000  21.2530000
  58.6330000  16.2080000  18.8070000  57.8210000  15.5340000  21.0270000
  58.4550000  16.3090000  17.4320000  57.0660000  15.9580000  15.4110000
  54.6170000  13.9170000  22.0850000  56.8400000  14.9770000  21.8580000
  59.4390000  16.5290000  19.1970000  58.6340000  15.8510000  21.3990000
  59.4510000  16.8950000  16.5690000  56.2660000  15.6520000  14.9990000
  58.0450000  16.5090000  14.6490000  54.7960000  13.8160000  23.4600000
  53.8120000  13.5960000  21.6960000  56.9960000  14.8580000  23.2490000
  59.2530000  16.9920000  15.2340000  60.2600000  17.2190000  16.9450000
  57.9240000  16.5740000  13.7090000  53.8000000  13.2300000  24.3230000
  56.0200000  14.2920000  24.0590000  57.7970000  15.1750000  23.6500000
  59.9210000  17.3840000  14.6840000  53.9970000  13.1330000  25.6590000
  52.9900000  12.9060000  23.9480000  56.1840000  14.1670000  25.4810000
  55.2050000  13.6160000  26.2430000  53.3290000  12.7420000  26.2080000
  56.9840000  14.4730000  25.8930000  55.3260000  13.5510000  27.1840000
  56.9120000  18.4250000  33.0920000  56.7550000  18.5450000  31.7000000
  55.9310000  17.8680000  33.9230000  58.1430000  18.9130000  33.6960000
  55.9540000  18.2270000  31.3000000  57.7310000  19.1100000  30.8900000
  55.1170000  17.5510000  33.5500000  56.1100000  17.7660000  35.3100000
  59.1350000  19.4850000  32.8640000  58.3220000  18.8110000  35.0840000
  58.9560000  19.5860000  31.4890000  57.5670000  19.2350000  29.4680000
  55.1180000  17.1940000  36.1420000  57.3410000  18.2540000  35.9140000
  59.9400000  19.8060000  33.2530000  59.1350000  19.1280000  35.4560000
  59.9520000  20.1720000  30.6260000  56.7680000  18.9290000  29.0560000
  58.5460000  19.7860000  28.7060000  55.2970000  17.0930000  37.5170000
  54.3130000  16.8730000  35.7530000  57.4970000  18.1340000  37.3060000
  59.7540000  20.2690000  29.2910000  60.7620000  20.4960000  31.0020000
  58.4250000  19.8510000  27.7660000  54.3010000  16.5070000  38.3800000
  56.5210000  17.5690000  38.1160000  58.2990000  18.4520000  37.7070000
  60.4220000  20.6600000  28.7410000  54.4990000  16.4100000  39.7150000
  53.4910000  16.1830000  38.0050000  56.6850000  17.4440000  39.5380000
  55.7060000  16.8930000  40.3000000  53.8300000  16.0180000  40.2650000
  57.4850000  17.7500000  39.9500000  55.8270000  16.8280000  41.2410000
  57.4130000  21.7020000  47.1490000  57.2570000  21.8210000  45.7570000
  56.4320000  21.1450000  47.9790000  58.6440000  22.1900000  47.7530000
  56.4550000  21.5040000  45.3560000  58.2330000  22.3870000  44.9470000
  55.6180000  20.8270000  47.6070000  56.6110000  21.0430000  49.3670000
  59.6360000  22.7610000  46.9210000  58.8230000  22.0880000  49.1400000
  59.4570000  22.8630000  45.5460000  58.0690000  22.5120000  43.5250000
  55.6190000  20.4710000  50.1990000  57.8420000  21.5310000  49.9710000
  60.4410000  23.0830000  47.3100000  59.6370000  22.4050000  49.5130000
  60.4530000  23.4480000  44.6830000  57.2690000  22.2050000  43.1130000
  59.0480000  23.0630000  42.7630000  55.7980000  20.3700000  51.5740000
  54.8140000  20.1500000  49.8100000  57.9990000  21.4110000  51.3630000
  60.2550000  23.5460000  43.3480000  61.2630000  23.7720000  45.0580000
  58.9270000  23.1280000  41.8220000  54.8020000  19.7840000  52.4370000
  57.0230000  20.8460000  52.1730000  58.8000000  21.7290000  51.7630000
  60.9240000  23.9370000  42.7980000  55.0000000  19.6870000  53.7720000
  53.9920000  19.4600000  52.0610000  57.1860000  20.7210000  53.5950000
  56.2070000  20.1700000  54.3570000  54.3320000  19.2950000  54.3220000
  57.9860000  21.0270000  54.0070000  56.3290000  20.1050000  55.2970000
  58.3430000  24.8070000  64.0280000  58.5000000  24.6880000  65.4200000
  59.3250000  25.3650000  63.1970000  57.1130000  24.3190000  63.4240000
  59.3010000  25.0060000  65.8200000  57.5240000  24.1230000  66.2290000
  60.1380000  25.6820000  63.5700000  59.1450000  25.4670000  61.8100000
  56.1210000  23.7480000  64.2560000  56.9330000  24.4210000  62.0360000
  56.2990000  23.6470000  65.6300000  57.6880000  23.9970000  67.6520000
  60.1370000  26.0380000  60.9780000  57.9140000  24.9790000  61.2050000
  55.3150000  23.4270000  63.8660000  56.1200000  24.1040000  61.6640000
  55.3030000  23.0610000  66.4940000  58.4870000  24.3040000  68.0640000
  56.7090000  23.4460000  68.4140000  59.9580000  26.1390000  59.6030000
  60.9420000  26.3590000  61.3670000  57.7580000  25.0980000  59.8140000
  55.5010000  22.9640000  67.8290000  54.4930000  22.7370000  66.1180000
  56.8300000  23.3810000  69.3540000  60.9540000  26.7250000  58.7400000
  58.7340000  25.6630000  59.0040000  56.9570000  24.7810000  59.4130000
  54.8330000  22.5720000  68.3790000  60.7560000  26.8220000  57.4040000
  61.7640000  27.0490000  59.1150000  58.5700000  25.7890000  57.5820000
  59.5490000  26.3400000  56.8200000  61.4250000  27.2140000  56.8550000
  57.7700000  25.4820000  57.1700000  59.4280000  26.4050000  55.8790000
  58.8450000  28.0840000  78.0850000  59.0010000  27.9650000  79.4760000
  59.8260000  28.6420000  77.2540000  57.6140000  27.5960000  77.4800000
  59.8020000  28.2820000  79.8770000  58.0250000  27.4000000  80.2860000
  60.6390000  28.9590000  77.6270000  59.6460000  28.7440000  75.8670000
  56.6220000  27.0250000  78.3130000  57.4340000  27.6980000  76.0930000
  56.8010000  26.9240000  79.6870000  58.1890000  27.2740000  81.7090000
  60.6380000  29.3150000  75.0350000  58.4160000  28.2560000  75.2620000
  55.8170000  26.7040000  77.9230000  56.6210000  27.3810000  75.7200000
  55.8050000  26.3380000  80.5500000  58.9890000  27.5810000  82.1210000
  57.2100000  26.7230000  82.4710000  60.4600000  29.4160000  73.6600000
  61.4440000  29.6360000  75.4240000  58.2590000  28.3750000  73.8710000
  56.0030000  26.2410000  81.8860000  54.9950000  26.0140000  80.1750000
  57.3310000  26.6580000  83.4110000  61.4560000  30.0020000  72.7970000
  59.2350000  28.9400000  73.0610000  57.4580000  28.0570000  73.4700000
  55.3340000  25.8490000  82.4350000  61.2580000  30.0990000  71.4610000
  62.2650000  30.3260000  73.1720000  59.0710000  29.0660000  71.6380000
  60.0500000  29.6170000  70.8770000  61.9260000  30.4910000  70.9120000
  58.2710000  28.7590000  71.2270000  59.9290000  29.6820000  69.9360000
  58.9170000  31.5320000  89.3190000  58.7600000  31.6520000  87.9270000
  57.9360000  30.9750000  90.1500000  60.1480000  32.0200000  89.9230000
  57.9590000  31.3340000  87.5270000  59.7360000  32.2170000  87.1180000
  57.1220000  30.6580000  89.7770000  58.1150000  30.8730000  91.5370000
  61.1400000  32.5920000  89.0910000  60.3270000  31.9180000  91.3110000
  60.9610000  32.6930000  87.7170000  59.5730000  32.3420000  85.6950000
  57.1230000  30.3020000  92.3690000  59.3460000  31.3610000  92.1420000
  61.9450000  32.9130000  89.4810000  61.1410000  32.2360000  91.6830000
  61.9570000  33.2790000  86.8530000  58.7730000  32.0360000  85.2830000
  60.5510000  32.8930000  84.9330000  57.3020000  30.2000000  93.7440000
  56.3180000  29.9800000  91.9800000  59.5020000  31.2420000  93.5330000
  61.7590000  33.3760000  85.5180000  62.7670000  33.6030000  87.2290000
  60.4300000  32.9580000  83.9930000  56.3060000  29.6150000  94.6070000
  58.5260000  30.6760000  94.3430000  60.3040000  31.5590000  93.9340000
  62.4270000  33.7680000  84.9680000  56.5040000  29.5170000  95.9430000
  55.4960000  29.2910000  94.2320000  58.6900000  30.5510000  95.7650000
  57.7110000  30.0000000  96.5270000  55.8350000  29.1260000  96.4920000
  59.4900000  30.8580000  96.1770000  57.8320000  29.9350000  97.4680000
  57.1470000  22.8270000  19.0350000  56.9900000  22.9460000  17.6430000
  56.1650000  22.2700000  19.8660000  58.3770000  23.3150000  19.6390000
  56.1890000  22.6290000  17.2430000  57.9660000  23.5120000  16.8340000
  55.3520000  21.9520000  19.4930000  56.3450000  22.1680000  21.2530000
  59.3690000  23.8860000  18.8070000  58.5570000  23.2130000  21.0270000
  59.1910000  23.9870000  17.4320000  57.8020000  23.6370000  15.4110000
  55.3530000  21.5960000  22.0850000  57.5760000  22.6560000  21.8580000
  60.1750000  24.2080000  19.1970000  59.3700000  23.5300000  21.3990000
  60.1870000  24.5730000  16.5690000  57.0030000  23.3300000  14.9990000
  58.7810000  24.1880000  14.6490000  55.5320000  21.4950000  23.4600000
  54.5480000  21.2750000  21.6960000  57.7320000  22.5360000  23.2490000
  59.9890000  24.6710000  15.2340000  60.9970000  24.8970000  16.9450000
  58.6600000  24.2530000  13.7090000  54.5360000  20.9090000  24.3230000
  56.7560000  21.9710000  24.0590000  58.5330000  22.8540000  23.6500000
  60.6570000  25.0620000  14.6840000  54.7340000  20.8120000  25.6590000
  53.7260000  20.5850000  23.9480000  56.9200000  21.8460000  25.4810000
  55.9410000  21.2940000  26.2430000  54.0650000  20.4200000  26.2080000
  57.7200000  22.1520000  25.8930000  56.0620000  21.2300000  27.1840000
  57.6480000  26.1040000  33.0920000  57.4910000  26.2230000  31.7000000
  56.6670000  25.5460000  33.9230000  58.8790000  26.5920000  33.6960000
  56.6900000  25.9050000  31.3000000  58.4670000  26.7880000  30.8900000
  55.8530000  25.2290000  33.5500000  56.8460000  25.4440000  35.3100000
  59.8710000  27.1630000  32.8640000  59.0580000  26.4900000  35.0840000
  59.6920000  27.2640000  31.4890000  58.3040000  26.9140000  29.4680000
  55.8540000  24.8730000  36.1420000  58.0770000  25.9320000  35.9140000
  60.6760000  27.4840000  33.2530000  59.8720000  26.8070000  35.4560000
  60.6880000  27.8500000  30.6260000  57.5040000  26.6070000  29.0560000
  59.2830000  27.4650000  28.7060000  56.0330000  24.7720000  37.5170000
  55.0490000  24.5520000  35.7530000  58.2330000  25.8130000  37.3060000
  60.4900000  27.9470000  29.2910000  61.4980000  28.1740000  31.0020000
  59.1610000  27.5300000  27.7660000  55.0370000  24.1860000  38.3800000
  57.2570000  25.2480000  38.1160000  59.0350000  26.1310000  37.7070000
  61.1580000  28.3390000  28.7410000  55.2350000  24.0890000  39.7150000
  54.2270000  23.8620000  38.0050000  57.4210000  25.1220000  39.5380000
  56.4420000  24.5710000  40.3000000  54.5660000  23.6970000  40.2650000
  58.2210000  25.4290000  39.9500000  56.5630000  24.5060000  41.2410000
  58.1490000  29.3810000  47.1490000  57.9930000  29.5000000  45.7570000
  57.1680000  28.8230000  47.9790000  59.3800000  29.8680000  47.7530000
  57.1910000  29.1820000  45.3560000  58.9690000  30.0650000  44.9470000
  56.3550000  28.5060000  47.6070000  57.3470000  28.7210000  49.3670000
  60.3720000  30.4400000  46.9210000  59.5590000  29.7670000  49.1400000
  60.1930000  30.5410000  45.5460000  58.8050000  30.1900000  43.5250000
  56.3550000  28.1500000  50.1990000  58.5780000  29.2090000  49.9710000
  61.1770000  30.7610000  47.3100000  60.3730000  30.0840000  49.5130000
  61.1890000  31.1270000  44.6830000  58.0050000  29.8840000  43.1130000
  59.7840000  30.7420000  42.7630000  56.5340000  28.0490000  51.5740000
  55.5500000  27.8290000  49.8100000  58.7350000  29.0900000  51.3630000
  60.9910000  31.2240000  43.3480000  61.9990000  31.4510000  45.0580000
  59.6630000  30.8060000  41.8220000  55.5380000  27.4630000  52.4370000
  57.7590000  28.5250000  52.1730000  59.5360000  29.4070000  51.7630000
  61.6600000  31.6160000  42.7980000  55.7360000  27.3660000  53.7720000
  54.7280000  27.1390000  52.0610000  57.9230000  28.3990000  53.5950000
  56.9440000  27.8480000  54.3570000  55.0680000  26.9740000  54.3220000
  58.7220000  28.7060000  54.0070000  57.0650000  27.7830000  55.2970000
  59.0790000  32.4860000  64.0280000  59.2360000  32.3670000  65.4200000
  60.0610000  33.0430000  63.1970000  57.8490000  31.9980000  63.4240000
  60.0370000  32.6840000  65.8200000  58.2600000  31.8010000  66.2290000
  60.8740000  33.3610000  63.5700000  59.8810000  33.1450000  61.8100000
  56.8570000  31.4270000  64.2560000  57.6690000  32.1000000  62.0360000
  57.0350000  31.3250000  65.6300000  58.4240000  31.6760000  67.6520000
  60.8730000  33.7170000  60.9780000  58.6500000  32.6570000  61.2050000
  56.0510000  31.1050000  63.8660000  56.8560000  31.7830000  61.6640000
  56.0390000  30.7400000  66.4940000  59.2240000  31.9820000  68.0640000
  57.4450000  31.1250000  68.4140000  60.6940000  33.8180000  59.6030000
  61.6780000  34.0380000  61.3670000  58.4940000  32.7770000  59.8140000
  56.2370000  30.6420000  67.8290000  55.2300000  30.4160000  66.1180000
  57.5660000  31.0600000  69.3540000  61.6910000  34.4040000  58.7400000
  59.4700000  33.3420000  59.0040000  57.6930000  32.4590000  59.4130000
  55.5690000  30.2510000  68.3790000  61.4930000  34.5010000  57.4040000
  62.5000000  34.7280000  59.1150000  59.3060000  33.4670000  57.5820000
  60.2850000  34.0180000  56.8200000  62.1610000  34.8930000  56.8550000
  58.5060000  33.1610000  57.1700000  60.1640000  34.0830000  55.8790000
  59.5810000  35.7630000  78.0850000  59.7370000  35.6430000  79.4760000
  60.5620000  36.3200000  77.2540000  58.3500000  35.2750000  77.4800000
  60.5390000  35.9610000  79.8770000  58.7610000  35.0780000  80.2860000
  61.3750000  36.6370000  77.6270000  60.3830000  36.4220000  75.8670000
  57.3580000  34.7030000  78.3130000  58.1710000  35.3770000  76.0930000
  57.5370000  34.6020000  79.6870000  58.9250000  34.9530000  81.7090000
  61.3740000  36.9940000  75.0350000  59.1520000  35.9340000  75.2620000
  56.5530000  34.3820000  77.9230000  57.3570000  35.0600000  75.7200000
  56.5410000  34.0160000  80.5500000  59.7250000  35.2590000  82.1210000
  57.9460000  34.4020000  82.4710000  61.1960000  37.0950000  73.6600000
  62.1800000  37.3150000  75.4240000  58.9950000  36.0540000  73.8710000
  56.7390000  33.9190000  81.8860000  55.7310000  33.6920000  80.1750000
  58.0670000  34.3370000  83.4110000  62.1920000  37.6810000  72.7970000
  59.9710000  36.6190000  73.0610000  58.1940000  35.7360000  73.4700000
  56.0700000  33.5270000  82.4350000  61.9940000  37.7780000  71.4610000
  63.0020000  38.0050000  73.1720000  59.8070000  36.7440000  71.6380000
  60.7860000  37.2950000  70.8770000  62.6620000  38.1700000  70.9120000
  59.0080000  36.4380000  71.2270000  60.6650000  37.3600000  69.9360000
  60.0820000  39.0400000  92.1420000  60.2380000  38.9200000  93.5330000
  61.0630000  39.5970000  91.3110000  58.8510000  38.5520000  91.5370000
  61.0400000  39.2380000  93.9340000  59.2630000  38.3550000  94.3430000
  61.8770000  39.9140000  91.6830000  60.8840000  39.6990000  89.9230000
  57.8590000  37.9800000  92.3690000  58.6720000  38.6540000  90.1500000
  58.0380000  37.8790000  93.7440000  59.4260000  38.2300000  95.7650000
  61.8760000  40.2710000  89.0910000  59.6530000  39.2110000  89.3190000
  57.0540000  37.6590000  91.9800000  57.8580000  38.3370000  89.7770000
  57.0420000  37.2930000  94.6070000  60.2260000  38.5360000  96.1770000
  58.4470000  37.6790000  96.5270000  61.6970000  40.3720000  87.7170000
  62.6810000  40.5920000  89.4810000  59.4970000  39.3300000  87.9270000
  57.2400000  37.1960000  95.9430000  56.2320000  36.9690000  94.2320000
  58.5680000  37.6140000  97.4680000  62.6930000  40.9570000  86.8530000
  60.4720000  39.8960000  87.1180000  58.6950000  39.0130000  87.5270000
  56.5710000  36.8040000  96.4920000  62.4950000  41.0550000  85.5180000
  63.5030000  41.2810000  87.2290000  60.3090000  40.0210000  85.6950000
  61.2880000  40.5720000  84.9330000  63.1630000  41.4460000  84.9680000
  59.5090000  39.7150000  85.2830000  61.1660000  40.6370000  83.9930000
  57.3820000  27.2290000   4.9780000  57.2250000  27.3480000   3.5870000
  56.4000000  26.6710000   5.8090000  58.6120000  27.7170000   5.5830000
  56.4240000  27.0300000   3.1860000  58.2010000  27.9130000   2.7770000
  55.5870000  26.3540000   5.4360000  56.5800000  26.5690000   7.1960000
  59.6040000  28.2880000   4.7500000  58.7920000  27.6150000   6.9700000
  59.4260000  28.3890000   3.3760000  58.0370000  28.0390000   1.3540000
  55.5880000  25.9980000   8.0280000  57.8110000  27.0570000   7.8010000
  60.4100000  28.6090000   5.1400000  59.6050000  27.9320000   7.3430000
  60.4220000  28.9750000   2.5130000  57.2370000  27.7320000   0.9420000
  59.0160000  28.5900000   0.5920000  55.7660000  25.8970000   9.4030000
  54.7820000  25.6770000   7.6390000  57.9670000  26.9380000   9.1920000
  60.2240000  29.0720000   1.1770000  61.2310000  29.2990000   2.8880000
  58.8950000  28.6550000  -0.3480000  54.7700000  25.3110000  10.2660000
  56.9910000  26.3730000  10.0020000  58.7680000  27.2550000   9.5930000
  60.8920000  29.4640000   0.6280000  54.9680000  25.2140000  11.6020000
  53.9610000  24.9870000   9.8910000  57.1550000  26.2470000  11.4250000
  56.1760000  25.6960000  12.1860000  54.3000000  24.8220000  12.1510000
  57.9550000  26.5540000  11.8360000  56.2970000  25.6310000  13.1270000
  58.1180000  34.9070000   4.9780000  57.9610000  35.0270000   3.5870000
  57.1360000  34.3500000   5.8090000  59.3480000  35.3950000   5.5830000
  57.1600000  34.7090000   3.1860000  58.9370000  35.5920000   2.7770000
  56.3230000  34.0330000   5.4360000  57.3160000  34.2480000   7.1960000
  60.3400000  35.9670000   4.7500000  59.5280000  35.2930000   6.9700000
  60.1620000  36.0680000   3.3760000  58.7730000  35.7170000   1.3540000
  56.3240000  33.6760000   8.0280000  58.5470000  34.7360000   7.8010000
  61.1460000  36.2880000   5.1400000  60.3410000  35.6100000   7.3430000
  61.1580000  36.6540000   2.5130000  57.9730000  35.4110000   0.9420000
  59.7520000  36.2680000   0.5920000  56.5030000  33.5750000   9.4030000
  55.5190000  33.3550000   7.6390000  58.7030000  34.6160000   9.1920000
  60.9600000  36.7510000   1.1770000  61.9670000  36.9780000   2.8880000
  59.6310000  36.3330000  -0.3480000  55.5070000  32.9890000  10.2660000
  57.7270000  34.0510000  10.0020000  59.5040000  34.9340000   9.5930000
  61.6280000  37.1430000   0.6280000  55.7050000  32.8920000  11.6020000
  54.6970000  32.6650000   9.8910000  57.8910000  33.9260000  11.4250000
  56.9120000  33.3750000  12.1860000  55.0360000  32.5010000  12.1510000
  58.6910000  34.2320000  11.8360000  57.0330000  33.3100000  13.1270000
  59.2830000  42.4150000   7.8010000  59.4390000  42.2950000   9.1920000
  60.2640000  42.9720000   6.9700000  58.0520000  41.9270000   7.1960000
  60.2410000  42.6130000   9.5930000  58.4630000  41.7300000  10.0020000
  61.0770000  43.2890000   7.3430000  60.0850000  43.0740000   5.5830000
  57.0600000  41.3550000   8.0280000  57.8730000  42.0280000   5.8090000
  57.2390000  41.2540000   9.4030000  58.6270000  41.6050000  11.4250000
  61.0760000  43.6450000   4.7500000  58.8540000  42.5860000   4.9780000
  56.2550000  41.0340000   7.6390000  57.0590000  41.7110000   5.4360000
  56.2430000  40.6680000  10.2660000  59.4270000  41.9110000  11.8360000
  57.6480000  41.0530000  12.1860000  60.8980000  43.7460000   3.3760000
  61.8820000  43.9660000   5.1400000  58.6970000  42.7050000   3.5870000
  56.4410000  40.5710000  11.6020000  55.4330000  40.3440000   9.8910000
  57.7690000  40.9890000  13.1270000  61.8940000  44.3320000   2.5130000
  59.6730000  43.2710000   2.7770000  57.8960000  42.3880000   3.1860000
  55.7720000  40.1790000  12.1510000  61.6960000  44.4290000   1.1770000
  62.7040000  44.6560000   2.8880000  59.5090000  43.3960000   1.3540000
  60.4880000  43.9470000   0.5920000  62.3640000  44.8210000   0.6280000
  58.7100000  43.0890000   0.9420000  60.3670000  44.0120000  -0.3480000
  62.0960000  66.6490000  75.2620000  61.9400000  66.7680000  73.8710000
  61.1150000  66.0910000  76.0930000  63.3270000  67.1370000  75.8670000
  61.1380000  66.4500000  73.4700000  62.9160000  67.3330000  73.0610000
  60.3020000  65.7740000  75.7200000  61.2940000  65.9890000  77.4800000
  64.3190000  67.7080000  75.0350000  63.5060000  67.0350000  77.2540000
  64.1400000  67.8090000  73.6600000  62.7520000  67.4590000  71.6380000
  60.3020000  65.4180000  78.3130000  62.5250000  66.4770000  78.0850000
  65.1240000  68.0290000  75.4240000  64.3200000  67.3520000  77.6270000
  65.1360000  68.3950000  72.7970000  61.9520000  67.1520000  71.2270000
  63.7310000  68.0100000  70.8770000  60.4810000  65.3170000  79.6870000
  59.4970000  65.0970000  77.9230000  62.6820000  66.3580000  79.4760000
  64.9380000  68.4920000  71.4610000  65.9460000  68.7190000  73.1720000
  63.6100000  68.0750000  69.9360000  59.4850000  64.7310000  80.5500000
  61.7060000  65.7930000  80.2860000  63.4830000  66.6750000  79.8770000
  65.6070000  68.8840000  70.9120000  59.6830000  64.6340000  81.8860000
  58.6750000  64.4070000  80.1750000  61.8700000  65.6670000  81.7090000
  60.8910000  65.1160000  82.4710000  59.0150000  64.2420000  82.4350000
  62.6690000  65.9740000  82.1210000  61.0120000  65.0510000  83.4110000
  60.0910000  53.5410000  19.0350000  59.9350000  53.6610000  17.6430000
  59.1100000  52.9840000  19.8660000  61.3220000  54.0290000  19.6390000
  59.1330000  53.3430000  17.2430000  60.9110000  54.2260000  16.8340000
  58.2960000  52.6670000  19.4930000  59.2890000  52.8820000  21.2530000
  62.3140000  54.6010000  18.8070000  61.5010000  53.9270000  21.0270000
  62.1350000  54.7020000  17.4320000  60.7470000  54.3510000  15.4110000
  58.2970000  52.3100000  22.0850000  60.5200000  53.3700000  21.8580000
  63.1190000  54.9220000  19.1970000  62.3150000  54.2440000  21.3990000
  63.1310000  55.2880000  16.5690000  59.9470000  54.0450000  14.9990000
  61.7260000  54.9020000  14.6490000  58.4760000  52.2090000  23.4600000
  57.4920000  51.9890000  21.6960000  60.6770000  53.2510000  23.2490000
  62.9330000  55.3850000  15.2340000  63.9410000  55.6120000  16.9450000
  61.6050000  54.9670000  13.7090000  57.4800000  51.6230000  24.3230000
  59.7010000  52.6850000  24.0590000  61.4780000  53.5680000  23.6500000
  63.6020000  55.7770000  14.6840000  57.6780000  51.5260000  25.6590000
  56.6700000  51.2990000  23.9480000  59.8640000  52.5600000  25.4810000
  58.8860000  52.0090000  26.2430000  57.0100000  51.1350000  26.2080000
  60.6640000  52.8660000  25.8930000  59.0070000  51.9440000  27.1840000
  61.0940000  60.0950000  47.1490000  60.9370000  60.2140000  45.7570000
  60.1120000  59.5380000  47.9790000  62.3240000  60.5830000  47.7530000
  60.1360000  59.8970000  45.3560000  61.9130000  60.7800000  44.9470000
  59.2990000  59.2200000  47.6070000  60.2920000  59.4360000  49.3670000
  63.3160000  61.1540000  46.9210000  62.5040000  60.4810000  49.1400000
  63.1380000  61.2560000  45.5460000  61.7490000  60.9050000  43.5250000
  59.3000000  58.8640000  50.1990000  61.5230000  59.9240000  49.9710000
  64.1220000  61.4760000  47.3100000  63.3170000  60.7980000  49.5130000
  64.1340000  61.8410000  44.6830000  60.9500000  60.5980000  43.1130000
  62.7280000  61.4560000  42.7630000  59.4790000  58.7630000  51.5740000
  58.4950000  58.5430000  49.8100000  61.6790000  59.8040000  51.3630000
  63.9360000  61.9390000  43.3480000  64.9440000  62.1650000  45.0580000
  62.6070000  61.5210000  41.8220000  58.4830000  58.1770000  52.4370000
  60.7030000  59.2390000  52.1730000  62.4800000  60.1220000  51.7630000
  64.6040000  62.3300000  42.7980000  58.6810000  58.0800000  53.7720000
  57.6730000  57.8530000  52.0610000  60.8670000  59.1140000  53.5950000
  59.8880000  58.5630000  54.3570000  58.0120000  57.6880000  54.3220000
  61.6670000  59.4200000  54.0070000  60.0090000  58.4980000  55.2970000
  62.0240000  63.2000000  64.0280000  62.1800000  63.0810000  65.4200000
  63.0050000  63.7580000  63.1970000  60.7930000  62.7120000  63.4240000
  62.9820000  63.3990000  65.8200000  61.2040000  62.5160000  66.2290000
  63.8190000  64.0750000  63.5700000  62.8260000  63.8600000  61.8100000
  59.8010000  62.1410000  64.2560000  60.6140000  62.8140000  62.0360000
  59.9800000  62.0400000  65.6300000  61.3680000  62.3900000  67.6520000
  63.8180000  64.4310000  60.9780000  61.5950000  63.3720000  61.2050000
  58.9960000  61.8200000  63.8660000  59.8000000  62.4970000  61.6640000
  58.9840000  61.4540000  66.4940000  62.1680000  62.6970000  68.0640000
  60.3890000  61.8390000  68.4140000  63.6390000  64.5320000  59.6030000
  64.6230000  64.7520000  61.3670000  61.4380000  63.4910000  59.8140000
  59.1820000  61.3570000  67.8290000  58.1740000  61.1300000  66.1180000
  60.5100000  61.7740000  69.3540000  64.6350000  65.1180000  58.7400000
  62.4140000  64.0560000  59.0040000  60.6370000  63.1740000  59.4130000
  58.5130000  60.9650000  68.3790000  64.4370000  65.2150000  57.4040000
  65.4450000  65.4420000  59.1150000  62.2510000  64.1820000  57.5820000
  63.2300000  64.7330000  56.8200000  65.1050000  65.6070000  56.8550000
  61.4510000  63.8750000  57.1700000  63.1080000  64.7980000  55.8790000
  61.0210000  56.6470000  35.9140000  61.1780000  56.5270000  37.3060000
  62.0030000  57.2040000  35.0840000  59.7910000  56.1590000  35.3100000
  61.9790000  56.8450000  37.7070000  60.2020000  55.9620000  38.1160000
  62.8160000  57.5210000  35.4560000  61.8230000  57.3060000  33.6960000
  58.7990000  55.5870000  36.1420000  59.6110000  56.2610000  33.9230000
  58.9770000  55.4860000  37.5170000  60.3660000  55.8370000  39.5380000
  62.8150000  57.8780000  32.8640000  60.5920000  56.8180000  33.0920000
  57.9930000  55.2660000  35.7530000  58.7980000  55.9440000  33.5500000
  57.9810000  54.9000000  38.3800000  61.1660000  56.1430000  39.9500000
  59.3870000  55.2860000  40.3000000  62.6360000  57.9790000  31.4890000
  63.6200000  58.1990000  33.2530000  60.4360000  56.9370000  31.7000000
  58.1790000  54.8030000  39.7150000  57.1720000  54.5760000  38.0050000
  59.5080000  55.2210000  41.2410000  63.6320000  58.5650000  30.6260000
  61.4120000  57.5030000  30.8900000  59.6350000  56.6200000  31.3000000
  57.5110000  54.4110000  40.2650000  63.4340000  58.6620000  29.2910000
  64.4420000  58.8890000  31.0020000  61.2480000  57.6280000  29.4680000
  62.2270000  58.1790000  28.7060000  64.1030000  59.0530000  28.7410000
  60.4480000  57.3220000  29.0560000  62.1060000  58.2440000  27.7660000
  63.0260000  69.7540000  92.1420000  63.1830000  69.6350000  93.5330000
  64.0080000  70.3110000  91.3110000  61.7960000  69.2660000  91.5370000
  63.9840000  69.9520000  93.9340000  62.2070000  69.0690000  94.3430000
  64.8210000  70.6290000  91.6830000  63.8280000  70.4130000  89.9230000
  60.8040000  68.6950000  92.3690000  61.6160000  69.3680000  90.1500000
  60.9820000  68.5930000  93.7440000  62.3710000  68.9440000  95.7650000
  64.8200000  70.9850000  89.0910000  62.5970000  69.9250000  89.3190000
  59.9980000  68.3730000  91.9800000  60.8030000  69.0510000  89.7770000
  59.9860000  68.0080000  94.6070000  63.1710000  69.2510000  96.1770000
  61.3920000  68.3930000  96.5270000  64.6410000  71.0860000  87.7170000
  65.6250000  71.3060000  89.4810000  62.4410000  70.0450000  87.9270000
  60.1840000  67.9100000  95.9430000  59.1770000  67.6840000  94.2320000
  61.5130000  68.3280000  97.4680000  65.6370000  71.6720000  86.8530000
  63.4170000  70.6100000  87.1180000  61.6400000  69.7270000  87.5270000
  59.5160000  67.5190000  96.4920000  65.4400000  71.7690000  85.5180000
  66.4470000  71.9960000  87.2290000  63.2530000  70.7350000  85.6950000
  64.2320000  71.2860000  84.9330000  66.1080000  72.1610000  84.9680000
  62.4530000  70.4290000  85.2830000  64.1110000  71.3510000  83.9930000
  61.2560000  61.0490000  21.8580000  61.4130000  60.9290000  23.2490000
  62.2370000  61.6060000  21.0270000  60.0250000  60.5610000  21.2530000
  62.2140000  61.2470000  23.6500000  60.4370000  60.3640000  24.0590000
  63.0510000  61.9230000  21.3990000  62.0580000  61.7080000  19.6390000
  59.0340000  59.9890000  22.0850000  59.8460000  60.6630000  19.8660000
  59.2120000  59.8880000  23.4600000  60.6010000  60.2390000  25.4810000
  63.0500000  62.2790000  18.8070000  60.8270000  61.2200000  19.0350000
  58.2280000  59.6680000  21.6960000  59.0330000  60.3450000  19.4930000
  58.2160000  59.3020000  24.3230000  61.4000000  60.5450000  25.8930000
  59.6220000  59.6870000  26.2430000  62.8710000  62.3800000  17.4320000
  63.8550000  62.6000000  19.1970000  60.6710000  61.3390000  17.6430000
  58.4140000  59.2050000  25.6590000  57.4060000  58.9780000  23.9480000
  59.7430000  59.6230000  27.1840000  63.8670000  62.9660000  16.5690000
  61.6470000  61.9050000  16.8340000  59.8690000  61.0220000  17.2430000
  57.7460000  58.8130000  26.2080000  63.6690000  63.0640000  15.2340000
  64.6770000  63.2900000  16.9450000  61.4830000  62.0300000  15.4110000
  62.4620000  62.5810000  14.6490000  64.3380000  63.4550000  14.6840000
  60.6830000  61.7230000  14.9990000  62.3410000  62.6460000  13.7090000
  61.7580000  64.3250000  35.9140000  61.9140000  64.2060000  37.3060000
  62.7390000  64.8830000  35.0840000  60.5270000  63.8370000  35.3100000
  62.7150000  64.5240000  37.7070000  60.9380000  63.6410000  38.1160000
  63.5520000  65.2000000  35.4560000  62.5590000  64.9850000  33.6960000
  59.5350000  63.2660000  36.1420000  60.3470000  63.9390000  33.9230000
  59.7130000  63.1650000  37.5170000  61.1020000  63.5150000  39.5380000
  63.5510000  65.5560000  32.8640000  61.3290000  64.4970000  33.0920000
  58.7290000  62.9450000  35.7530000  59.5340000  63.6220000  33.5500000
  58.7170000  62.5790000  38.3800000  61.9020000  63.8220000  39.9500000
  60.1230000  62.9640000  40.3000000  63.3730000  65.6570000  31.4890000
  64.3570000  65.8770000  33.2530000  61.1720000  64.6160000  31.7000000
  58.9150000  62.4820000  39.7150000  57.9080000  62.2550000  38.0050000
  60.2440000  62.8990000  41.2410000  64.3690000  66.2430000  30.6260000
  62.1480000  65.1810000  30.8900000  60.3710000  64.2980000  31.3000000
  58.2470000  62.0900000  40.2650000  64.1710000  66.3400000  29.2910000
  65.1780000  66.5670000  31.0020000  61.9840000  65.3070000  29.4680000
  62.9630000  65.8580000  28.7060000  64.8390000  66.7320000  28.7410000
  61.1840000  65.0000000  29.0560000  62.8420000  65.9230000  27.7660000
  61.8300000  67.7730000  47.1490000  61.6730000  67.8930000  45.7570000
  60.8490000  67.2160000  47.9790000  63.0610000  68.2610000  47.7530000
  60.8720000  67.5750000  45.3560000  62.6490000  68.4580000  44.9470000
  60.0350000  66.8990000  47.6070000  61.0280000  67.1140000  49.3670000
  64.0520000  68.8330000  46.9210000  63.2400000  68.1600000  49.1400000
  63.8740000  68.9340000  45.5460000  62.4850000  68.5830000  43.5250000
  60.0360000  66.5430000  50.1990000  62.2590000  67.6020000  49.9710000
  64.8580000  69.1540000  47.3100000  64.0530000  68.4770000  49.5130000
  64.8700000  69.5200000  44.6830000  61.6860000  68.2770000  43.1130000
  63.4640000  69.1350000  42.7630000  60.2150000  66.4420000  51.5740000
  59.2310000  66.2220000  49.8100000  62.4150000  67.4830000  51.3630000
  64.6720000  69.6170000  43.3480000  65.6800000  69.8440000  45.0580000
  63.3430000  69.1990000  41.8220000  59.2190000  65.8560000  52.4370000
  61.4390000  66.9170000  52.1730000  63.2170000  67.8000000  51.7630000
  65.3400000  70.0090000  42.7980000  59.4170000  65.7590000  53.7720000
  58.4090000  65.5320000  52.0610000  61.6030000  66.7920000  53.5950000
  60.6240000  66.2410000  54.3570000  58.7480000  65.3670000  54.3220000
  62.4030000  67.0990000  54.0070000  60.7450000  66.1760000  55.2970000
  63.7630000  77.4330000  92.1420000  63.9190000  77.3130000  93.5330000
  64.7440000  77.9900000  91.3110000  62.5320000  76.9450000  91.5370000
  64.7200000  77.6310000  93.9340000  62.9430000  76.7480000  94.3430000
  65.5570000  78.3070000  91.6830000  64.5640000  78.0920000  89.9230000
  61.5400000  76.3730000  92.3690000  62.3520000  77.0470000  90.1500000
  61.7190000  76.2720000  93.7440000  63.1070000  76.6230000  95.7650000
  65.5560000  78.6640000  89.0910000  63.3340000  77.6040000  89.3190000
  60.7350000  76.0520000  91.9800000  61.5390000  76.7290000  89.7770000
  60.7230000  75.6860000  94.6070000  63.9070000  76.9290000  96.1770000
  62.1280000  76.0720000  96.5270000  65.3780000  78.7650000  87.7170000
  66.3620000  78.9850000  89.4810000  63.1770000  77.7230000  87.9270000
  60.9200000  75.5890000  95.9430000  59.9130000  75.3620000  94.2320000
  62.2490000  76.0070000  97.4680000  66.3740000  79.3500000  86.8530000
  64.1530000  78.2890000  87.1180000  62.3760000  77.4060000  87.5270000
  60.2520000  75.1970000  96.4920000  66.1760000  79.4480000  85.5180000
  67.1830000  79.6740000  87.2290000  63.9890000  78.4140000  85.6950000
  64.9680000  78.9650000  84.9330000  66.8440000  79.8390000  84.9680000
  63.1890000  78.1080000  85.2830000  64.8470000  79.0300000  83.9930000
  62.3310000  71.0500000  61.2050000  62.1750000  71.1700000  59.8140000
  61.3500000  70.4930000  62.0360000  63.5620000  71.5380000  61.8100000
  61.3730000  70.8520000  59.4130000  63.1510000  71.7350000  59.0040000
  60.5360000  70.1760000  61.6640000  61.5290000  70.3910000  63.4240000
  64.5540000  72.1100000  60.9780000  63.7410000  71.4360000  63.1970000
  64.3750000  72.2110000  59.6030000  62.9870000  71.8600000  57.5820000
  60.5370000  69.8190000  64.2560000  62.7600000  70.8790000  64.0280000
  65.3590000  72.4310000  61.3670000  64.5550000  71.7540000  63.5700000
  65.3710000  72.7970000  58.7400000  62.1870000  71.5540000  57.1700000
  63.9660000  72.4110000  56.8200000  60.7160000  69.7180000  65.6300000
  59.7320000  69.4980000  63.8660000  62.9160000  70.7600000  65.4200000
  65.1730000  72.8940000  57.4040000  66.1810000  73.1210000  59.1150000
  63.8450000  72.4760000  55.8790000  59.7200000  69.1330000  66.4940000
  61.9410000  70.1940000  66.2290000  63.7180000  71.0770000  65.8200000
  65.8420000  73.2860000  56.8550000  59.9180000  69.0350000  67.8290000
  58.9100000  68.8090000  66.1180000  62.1040000  70.0690000  67.6520000
  61.1250000  69.5180000  68.4140000  59.2500000  68.6440000  68.3790000
  62.9040000  70.3750000  68.0640000  61.2470000  69.4530000  69.3540000
  62.8320000  74.3270000  75.2620000  62.6760000  74.4470000  73.8710000
  61.8510000  73.7700000  76.0930000  64.0630000  74.8150000  75.8670000
  61.8740000  74.1290000  73.4700000  63.6520000  75.0120000  73.0610000
  61.0380000  73.4530000  75.7200000  62.0310000  73.6680000  77.4800000
  65.0550000  75.3870000  75.0350000  64.2420000  74.7130000  77.2540000
  64.8760000  75.4880000  73.6600000  63.4880000  75.1370000  71.6380000
  61.0390000  73.0960000  78.3130000  63.2610000  74.1560000  78.0850000
  65.8600000  75.7080000  75.4240000  65.0560000  75.0300000  77.6270000
  65.8720000  76.0740000  72.7970000  62.6880000  74.8310000  71.2270000
  64.4670000  75.6880000  70.8770000  61.2170000  72.9950000  79.6870000
  60.2330000  72.7750000  77.9230000  63.4180000  74.0360000  79.4760000
  65.6740000  76.1710000  71.4610000  66.6820000  76.3980000  73.1720000
  64.3460000  75.7530000  69.9360000  60.2210000  72.4090000  80.5500000
  62.4420000  73.4710000  80.2860000  64.2190000  74.3540000  79.8770000
  66.3430000  76.5630000  70.9120000  60.4190000  72.3120000  81.8860000
  59.4110000  72.0850000  80.1750000  62.6060000  73.3460000  81.7090000
  61.6270000  72.7950000  82.4710000  59.7510000  71.9200000  82.4350000
  63.4050000  73.6520000  82.1210000  61.7480000  72.7300000  83.4110000
  61.9920000  68.7270000  21.8580000  62.1490000  68.6080000  23.2490000
  62.9740000  69.2840000  21.0270000  60.7620000  68.2390000  21.2530000
  62.9500000  68.9250000  23.6500000  61.1730000  68.0420000  24.0590000
  63.7870000  69.6020000  21.3990000  62.7940000  69.3860000  19.6390000
  59.7700000  67.6680000  22.0850000  60.5820000  68.3410000  19.8660000
  59.9480000  67.5670000  23.4600000  61.3370000  67.9170000  25.4810000
  63.7860000  69.9580000  18.8070000  61.5630000  68.8980000  19.0350000
  58.9640000  67.3460000  21.6960000  59.7690000  68.0240000  19.4930000
  58.9520000  66.9810000  24.3230000  62.1370000  68.2240000  25.8930000
  60.3580000  67.3660000  26.2430000  63.6070000  70.0590000  17.4320000
  64.5910000  70.2790000  19.1970000  61.4070000  69.0180000  17.6430000
  59.1500000  66.8830000  25.6590000  58.1430000  66.6570000  23.9480000
  60.4790000  67.3010000  27.1840000  64.6030000  70.6450000  16.5690000
  62.3830000  69.5830000  16.8340000  60.6060000  68.7000000  17.2430000
  58.4820000  66.4920000  26.2080000  64.4050000  70.7420000  15.2340000
  65.4130000  70.9690000  16.9450000  62.2190000  69.7080000  15.4110000
  63.1980000  70.2590000  14.6490000  65.0740000  71.1340000  14.6840000
  61.4190000  69.4020000  14.9990000  63.0770000  70.3240000  13.7090000
  62.4940000  72.0040000  35.9140000  62.6500000  71.8850000  37.3060000
  63.4750000  72.5610000  35.0840000  61.2630000  71.5160000  35.3100000
  63.4510000  72.2020000  37.7070000  61.6740000  71.3190000  38.1160000
  64.2880000  72.8780000  35.4560000  63.2950000  72.6630000  33.6960000
  60.2710000  70.9440000  36.1420000  61.0830000  71.6180000  33.9230000
  60.4500000  70.8430000  37.5170000  61.8380000  71.1940000  39.5380000
  64.2870000  73.2350000  32.8640000  62.0650000  72.1750000  33.0920000
  59.4660000  70.6230000  35.7530000  60.2700000  71.3010000  33.5500000
  59.4540000  70.2570000  38.3800000  62.6380000  71.5000000  39.9500000
  60.8590000  70.6430000  40.3000000  64.1090000  73.3360000  31.4890000
  65.0930000  73.5560000  33.2530000  61.9080000  72.2950000  31.7000000
  59.6520000  70.1600000  39.7150000  58.6440000  69.9330000  38.0050000
  60.9800000  70.5780000  41.2410000  65.1050000  73.9220000  30.6260000
  62.8840000  72.8600000  30.8900000  61.1070000  71.9770000  31.3000000
  58.9830000  69.7690000  40.2650000  64.9070000  74.0190000  29.2910000
  65.9140000  74.2460000  31.0020000  62.7200000  72.9850000  29.4680000
  63.6990000  73.5360000  28.7060000  65.5750000  74.4110000  28.7410000
  61.9200000  72.6790000  29.0560000  63.5780000  73.6010000  27.7660000
  62.5660000  75.4520000  47.1490000  62.4090000  75.5720000  45.7570000
  61.5850000  74.8950000  47.9790000  63.7970000  75.9400000  47.7530000
  61.6080000  75.2540000  45.3560000  63.3850000  76.1370000  44.9470000
  60.7710000  74.5780000  47.6070000  61.7640000  74.7930000  49.3670000
  64.7890000  76.5120000  46.9210000  63.9760000  75.8380000  49.1400000
  64.6100000  76.6130000  45.5460000  63.2220000  76.2620000  43.5250000
  60.7720000  74.2210000  50.1990000  62.9950000  75.2810000  49.9710000
  65.5940000  76.8330000  47.3100000  64.7900000  76.1550000  49.5130000
  65.6060000  77.1990000  44.6830000  62.4220000  75.9560000  43.1130000
  64.2010000  76.8130000  42.7630000  60.9510000  74.1200000  51.5740000
  59.9670000  73.9000000  49.8100000  63.1510000  75.1610000  51.3630000
  65.4080000  77.2960000  43.3480000  66.4160000  77.5230000  45.0580000
  64.0790000  76.8780000  41.8220000  59.9550000  73.5340000  52.4370000
  62.1750000  74.5960000  52.1730000  63.9530000  75.4790000  51.7630000
  66.0760000  77.6870000  42.7980000  60.1530000  73.4370000  53.7720000
  59.1450000  73.2100000  52.0610000  62.3390000  74.4710000  53.5950000
  61.3600000  73.9200000  54.3570000  59.4840000  73.0450000  54.3220000
  63.1390000  74.7770000  54.0070000  61.4810000  73.8550000  55.2970000
  63.5680000  82.0060000  75.2620000  63.4120000  82.1250000  73.8710000
  62.5870000  81.4480000  76.0930000  64.7990000  82.4940000  75.8670000
  62.6110000  81.8080000  73.4700000  64.3880000  82.6900000  73.0610000
  61.7740000  81.1310000  75.7200000  62.7670000  81.3460000  77.4800000
  65.7910000  83.0650000  75.0350000  64.9790000  82.3920000  77.2540000
  65.6120000  83.1660000  73.6600000  64.2240000  82.8160000  71.6380000
  61.7750000  80.7750000  78.3130000  63.9970000  81.8340000  78.0850000
  66.5960000  83.3860000  75.4240000  65.7920000  82.7090000  77.6270000
  66.6080000  83.7520000  72.7970000  63.4240000  82.5090000  71.2270000
  65.2030000  83.3670000  70.8770000  61.9530000  80.6740000  79.6870000
  60.9690000  80.4540000  77.9230000  64.1540000  81.7150000  79.4760000
  66.4110000  83.8490000  71.4610000  67.4180000  84.0760000  73.1720000
  65.0820000  83.4320000  69.9360000  60.9570000  80.0880000  80.5500000
  63.1780000  81.1500000  80.2860000  64.9550000  82.0330000  79.8770000
  67.0790000  84.2410000  70.9120000  61.1550000  79.9910000  81.8860000
  60.1480000  79.7640000  80.1750000  63.3420000  81.0240000  81.7090000
  62.3630000  80.4730000  82.4710000  60.4870000  79.5990000  82.4350000
  64.1420000  81.3310000  82.1210000  62.4840000  80.4090000  83.4110000
  64.4990000  85.1110000  92.1420000  64.6550000  84.9920000  93.5330000
  65.4800000  85.6690000  91.3110000  63.2680000  84.6230000  91.5370000
  65.4570000  85.3090000  93.9340000  63.6790000  84.4270000  94.3430000
  66.2930000  85.9860000  91.6830000  65.3000000  85.7710000  89.9230000
  62.2760000  84.0520000  92.3690000  63.0890000  84.7250000  90.1500000
  62.4550000  83.9510000  93.7440000  63.8430000  84.3010000  95.7650000
  66.2920000  86.3420000  89.0910000  64.0700000  85.2830000  89.3190000
  61.4710000  83.7310000  91.9800000  62.2750000  84.4080000  89.7770000
  61.4590000  83.3650000  94.6070000  64.6430000  84.6080000  96.1770000
  62.8640000  83.7500000  96.5270000  66.1140000  86.4430000  87.7170000
  67.0980000  86.6630000  89.4810000  63.9130000  85.4020000  87.9270000
  61.6570000  83.2680000  95.9430000  60.6490000  83.0410000  94.2320000
  62.9850000  83.6850000  97.4680000  67.1100000  87.0290000  86.8530000
  64.8890000  85.9670000  87.1180000  63.1120000  85.0840000  87.5270000
  60.9880000  82.8760000  96.4920000  66.9120000  87.1260000  85.5180000
  67.9200000  87.3530000  87.2290000  64.7250000  86.0930000  85.6950000
  65.7040000  86.6440000  84.9330000  67.5800000  87.5180000  84.9680000
  63.9260000  85.7860000  85.2830000  65.5830000  86.7090000  83.9930000
  63.0670000  78.7290000  61.2050000  62.9110000  78.8480000  59.8140000
  62.0860000  78.1720000  62.0360000  64.2980000  79.2170000  61.8100000
  62.1090000  78.5310000  59.4130000  63.8870000  79.4140000  59.0040000
  61.2720000  77.8540000  61.6640000  62.2650000  78.0700000  63.4240000
  65.2900000  79.7880000  60.9780000  64.4770000  79.1150000  63.1970000
  65.1110000  79.8900000  59.6030000  63.7230000  79.5390000  57.5820000
  61.2730000  77.4980000  64.2560000  63.4960000  78.5580000  64.0280000
  66.0950000  80.1100000  61.3670000  65.2910000  79.4320000  63.5700000
  66.1070000  80.4750000  58.7400000  62.9230000  79.2320000  57.1700000
  64.7020000  80.0900000  56.8200000  61.4520000  77.3970000  65.6300000
  60.4680000  77.1770000  63.8660000  63.6530000  78.4380000  65.4200000
  65.9090000  80.5730000  57.4040000  66.9170000  80.7990000  59.1150000
  64.5810000  80.1550000  55.8790000  60.4560000  76.8110000  66.4940000
  62.6770000  77.8730000  66.2290000  64.4540000  78.7560000  65.8200000
  66.5780000  80.9640000  56.8550000  60.6540000  76.7140000  67.8290000
  59.6460000  76.4870000  66.1180000  62.8410000  77.7480000  67.6520000
  61.8620000  77.1970000  68.4140000  59.9860000  76.3220000  68.3790000
  63.6400000  78.0540000  68.0640000  61.9830000  77.1320000  69.3540000
  61.7980000  73.3000000   4.9780000  61.6420000  73.4200000   3.5870000
  60.8170000  72.7430000   5.8090000  63.0290000  73.7880000   5.5830000
  60.8400000  73.1020000   3.1860000  62.6180000  73.9850000   2.7770000
  60.0040000  72.4260000   5.4360000  60.9960000  72.6410000   7.1960000
  64.0210000  74.3600000   4.7500000  63.2080000  73.6860000   6.9700000
  63.8420000  74.4610000   3.3760000  62.4540000  74.1100000   1.3540000
  60.0050000  72.0690000   8.0280000  62.2270000  73.1290000   7.8010000
  64.8260000  74.6810000   5.1400000  64.0220000  74.0030000   7.3430000
  64.8380000  75.0470000   2.5130000  61.6540000  73.8040000   0.9420000
  63.4330000  74.6610000   0.5920000  60.1830000  71.9680000   9.4030000
  59.1990000  71.7480000   7.6390000  62.3840000  73.0090000   9.1920000
  64.6400000  75.1440000   1.1770000  65.6480000  75.3710000   2.8880000
  63.3120000  74.7260000  -0.3480000  59.1870000  71.3820000  10.2660000
  61.4080000  72.4440000  10.0020000  63.1850000  73.3270000   9.5930000
  65.3090000  75.5360000   0.6280000  59.3850000  71.2850000  11.6020000
  58.3770000  71.0580000   9.8910000  61.5720000  72.3190000  11.4250000
  60.5930000  71.7680000  12.1860000  58.7170000  70.8930000  12.1510000
  62.3710000  72.6250000  11.8360000  60.7140000  71.7030000  13.1270000
  62.5340000  80.9790000   4.9780000  62.3780000  81.0980000   3.5870000
  61.5530000  80.4210000   5.8090000  63.7650000  81.4670000   5.5830000
  61.5770000  80.7810000   3.1860000  63.3540000  81.6630000   2.7770000
  60.7400000  80.1040000   5.4360000  61.7330000  80.3200000   7.1960000
  64.7570000  82.0380000   4.7500000  63.9450000  81.3650000   6.9700000
  64.5780000  82.1390000   3.3760000  63.1900000  81.7890000   1.3540000
  60.7410000  79.7480000   8.0280000  62.9630000  80.8070000   7.8010000
  65.5620000  82.3590000   5.1400000  64.7580000  81.6820000   7.3430000
  65.5740000  82.7250000   2.5130000  62.3900000  81.4820000   0.9420000
  64.1690000  82.3400000   0.5920000  60.9190000  79.6470000   9.4030000
  59.9350000  79.4270000   7.6390000  63.1200000  80.6880000   9.1920000
  65.3760000  82.8220000   1.1770000  66.3840000  83.0490000   2.8880000
  64.0480000  82.4050000  -0.3480000  59.9230000  79.0610000  10.2660000
  62.1440000  80.1230000  10.0020000  63.9210000  81.0060000   9.5930000
  66.0450000  83.2140000   0.6280000  60.1210000  78.9640000  11.6020000
  59.1140000  78.7370000   9.8910000  62.3080000  79.9980000  11.4250000
  61.3290000  79.4460000  12.1860000  59.4530000  78.5720000  12.1510000
  63.1080000  80.3040000  11.8360000  61.4500000  79.3820000  13.1270000
  55.1730000   4.1930000   4.9780000  55.0170000   4.3120000   3.5870000
  54.1920000   3.6360000   5.8090000  56.4040000   4.6810000   5.5830000
  54.2150000   3.9950000   3.1860000  55.9930000   4.8780000   2.7770000
  53.3780000   3.3180000   5.4360000  54.3710000   3.5340000   7.1960000
  57.3960000   5.2520000   4.7500000  56.5830000   4.5790000   6.9700000
  57.2170000   5.3530000   3.3760000  55.8290000   5.0030000   1.3540000
  53.3790000   2.9620000   8.0280000  55.6020000   4.0220000   7.8010000
  58.2010000   5.5730000   5.1400000  57.3970000   4.8960000   7.3430000
  58.2130000   5.9390000   2.5130000  55.0290000   4.6960000   0.9420000
  56.8080000   5.5540000   0.5920000  53.5580000   2.8610000   9.4030000
  52.5740000   2.6410000   7.6390000  55.7590000   3.9020000   9.1920000
  58.0150000   6.0370000   1.1770000  59.0230000   6.2630000   2.8880000
  56.6870000   5.6190000  -0.3480000  52.5620000   2.2750000  10.2660000
  54.7830000   3.3370000  10.0020000  56.5600000   4.2200000   9.5930000
  58.6840000   6.4280000   0.6280000  52.7600000   2.1780000  11.6020000
  51.7520000   1.9510000   9.8910000  54.9470000   3.2120000  11.4250000
  53.9680000   2.6600000  12.1860000  52.0920000   1.7860000  12.1510000
  55.7460000   3.5180000  11.8360000  54.0890000   2.5960000  13.1270000
  55.9090000  11.8710000   4.9780000  55.7530000  11.9910000   3.5870000
  54.9280000  11.3140000   5.8090000  57.1400000  12.3590000   5.5830000
  54.9510000  11.6730000   3.1860000  56.7290000  12.5560000   2.7770000
  54.1150000  10.9970000   5.4360000  55.1070000  11.2120000   7.1960000
  58.1320000  12.9310000   4.7500000  57.3190000  12.2570000   6.9700000
  57.9530000  13.0320000   3.3760000  56.5650000  12.6810000   1.3540000
  54.1160000  10.6410000   8.0280000  56.3380000  11.7000000   7.8010000
  58.9370000  13.2520000   5.1400000  58.1330000  12.5750000   7.3430000
  58.9490000  13.6180000   2.5130000  55.7650000  12.3750000   0.9420000
  57.5440000  13.2320000   0.5920000  54.2940000  10.5390000   9.4030000
  53.3100000  10.3190000   7.6390000  56.4950000  11.5810000   9.1920000
  58.7510000  13.7150000   1.1770000  59.7590000  13.9420000   2.8880000
  57.4230000  13.2970000  -0.3480000  53.2980000   9.9540000  10.2660000
  55.5190000  11.0150000  10.0020000  57.2960000  11.8980000   9.5930000
  59.4200000  14.1070000   0.6280000  53.4960000   9.8560000  11.6020000
  52.4880000   9.6300000   9.8910000  55.6830000  10.8900000  11.4250000
  54.7040000  10.3390000  12.1860000  52.8280000   9.4650000  12.1510000
  56.4820000  11.1970000  11.8360000  54.8250000  10.2740000  13.1270000
  56.6450000  19.5500000   4.9780000  56.4890000  19.6690000   3.5870000
  55.6640000  18.9930000   5.8090000  57.8760000  20.0380000   5.5830000
  55.6880000  19.3520000   3.1860000  57.4650000  20.2350000   2.7770000
  54.8510000  18.6760000   5.4360000  55.8440000  18.8910000   7.1960000
  58.8680000  20.6100000   4.7500000  58.0560000  19.9360000   6.9700000
  58.6890000  20.7110000   3.3760000  57.3010000  20.3600000   1.3540000
  54.8520000  18.3190000   8.0280000  57.0740000  19.3790000   7.8010000
  59.6730000  20.9310000   5.1400000  58.8690000  20.2530000   7.3430000
  59.6850000  21.2960000   2.5130000  56.5010000  20.0540000   0.9420000
  58.2800000  20.9110000   0.5920000  55.0300000  18.2180000   9.4030000
  54.0460000  17.9980000   7.6390000  57.2310000  19.2590000   9.1920000
  59.4870000  21.3940000   1.1770000  60.4950000  21.6200000   2.8880000
  58.1590000  20.9760000  -0.3480000  54.0340000  17.6320000  10.2660000
  56.2550000  18.6940000  10.0020000  58.0320000  19.5770000   9.5930000
  60.1560000  21.7850000   0.6280000  54.2320000  17.5350000  11.6020000
  53.2250000  17.3080000   9.8910000  56.4190000  18.5690000  11.4250000
  55.4400000  18.0180000  12.1860000  53.5640000  17.1430000  12.1510000
  57.2190000  18.8750000  11.8360000  55.5610000  17.9530000  13.1270000
  59.5900000  50.2640000   4.9780000  59.4330000  50.3840000   3.5870000
  58.6090000  49.7070000   5.8090000  60.8210000  50.7520000   5.5830000
  58.6320000  50.0660000   3.1860000  60.4090000  50.9490000   2.7770000
  57.7950000  49.3900000   5.4360000  58.7880000  49.6050000   7.1960000
  61.8130000  51.3240000   4.7500000  61.0000000  50.6500000   6.9700000
  61.6340000  51.4250000   3.3760000  60.2460000  51.0740000   1.3540000
  57.7960000  49.0340000   8.0280000  60.0190000  50.0930000   7.8010000
  62.6180000  51.6450000   5.1400000  61.8140000  50.9680000   7.3430000
  62.6300000  52.0110000   2.5130000  59.4460000  50.7680000   0.9420000
  61.2250000  51.6250000   0.5920000  57.9750000  48.9320000   9.4030000
  56.9910000  48.7120000   7.6390000  60.1750000  49.9740000   9.1920000
  62.4320000  52.1080000   1.1770000  63.4400000  52.3350000   2.8880000
  61.1030000  51.6900000  -0.3480000  56.9790000  48.3470000  10.2660000
  59.1990000  49.4080000  10.0020000  60.9770000  50.2910000   9.5930000
  63.1000000  52.5000000   0.6280000  57.1770000  48.2490000  11.6020000
  56.1690000  48.0230000   9.8910000  59.3630000  49.2830000  11.4250000
  58.3840000  48.7320000  12.1860000  56.5080000  47.8580000  12.1510000
  60.1630000  49.5900000  11.8360000  58.5050000  48.6670000  13.1270000
  60.3260000  57.9430000   4.9780000  60.1700000  58.0620000   3.5870000
  59.3450000  57.3860000   5.8090000  61.5570000  58.4310000   5.5830000
  59.3680000  57.7450000   3.1860000  61.1450000  58.6280000   2.7770000
  58.5310000  57.0680000   5.4360000  59.5240000  57.2840000   7.1960000
  62.5490000  59.0030000   4.7500000  61.7360000  58.3290000   6.9700000
  62.3700000  59.1040000   3.3760000  60.9820000  58.7530000   1.3540000
  58.5320000  56.7120000   8.0280000  60.7550000  57.7720000   7.8010000
  63.3540000  59.3240000   5.1400000  62.5500000  58.6460000   7.3430000
  63.3660000  59.6890000   2.5130000  60.1820000  58.4470000   0.9420000
  61.9610000  59.3040000   0.5920000  58.7110000  56.6110000   9.4030000
  57.7270000  56.3910000   7.6390000  60.9110000  57.6520000   9.1920000
  63.1680000  59.7870000   1.1770000  64.1760000  60.0130000   2.8880000
  61.8390000  59.3690000  -0.3480000  57.7150000  56.0250000  10.2660000
  59.9360000  57.0870000  10.0020000  61.7130000  57.9700000   9.5930000
  63.8370000  60.1780000   0.6280000  57.9130000  55.9280000  11.6020000
  56.9050000  55.7010000   9.8910000  60.0990000  56.9620000  11.4250000
  59.1200000  56.4110000  12.1860000  57.2440000  55.5360000  12.1510000
  60.8990000  57.2680000  11.8360000  59.2420000  56.3460000  13.1270000
  61.0620000  65.6220000   4.9780000  60.9060000  65.7410000   3.5870000
  60.0810000  65.0640000   5.8090000  62.2930000  66.1100000   5.5830000
  60.1040000  65.4230000   3.1860000  61.8820000  66.3060000   2.7770000
  59.2670000  64.7470000   5.4360000  60.2600000  64.9620000   7.1960000
  63.2850000  66.6810000   4.7500000  62.4720000  66.0080000   6.9700000
  63.1060000  66.7820000   3.3760000  61.7180000  66.4320000   1.3540000
  59.2680000  64.3910000   8.0280000  61.4910000  65.4500000   7.8010000
  64.0900000  67.0020000   5.1400000  63.2860000  66.3250000   7.3430000
  64.1020000  67.3680000   2.5130000  60.9180000  66.1250000   0.9420000
  62.6970000  66.9830000   0.5920000  59.4470000  64.2900000   9.4030000
  58.4630000  64.0700000   7.6390000  61.6480000  65.3310000   9.1920000
  63.9040000  67.4650000   1.1770000  64.9120000  67.6920000   2.8880000
  62.5760000  67.0480000  -0.3480000  58.4510000  63.7040000  10.2660000
  60.6720000  64.7660000  10.0020000  62.4490000  65.6480000   9.5930000
  64.5730000  67.8570000   0.6280000  58.6490000  63.6070000  11.6020000
  57.6410000  63.3800000   9.8910000  60.8350000  64.6400000  11.4250000
  59.8560000  64.0890000  12.1860000  57.9810000  63.2150000  12.1510000
  61.6350000  64.9470000  11.8360000  59.9780000  64.0240000  13.1270000
  59.6760000  15.2020000  33.2790000  59.5060000  15.8790000  32.0540000
  58.7010000  15.2070000  34.2820000  60.9210000  14.4730000  33.5110000
  58.7050000  16.3660000  31.9030000  60.4790000  15.8520000  31.0650000
  57.8870000  15.6800000  34.1520000  58.8710000  14.5270000  35.4960000
  61.9050000  14.4680000  32.4920000  61.0910000  13.7930000  34.7240000
  61.7090000  15.1270000  31.2910000  60.3070000  16.5120000  29.8110000
  57.8870000  14.5320000  36.5150000  60.1150000  13.7980000  35.7270000
  62.7190000  14.0000000  32.6360000  61.9050000  13.3200000  34.8550000
  62.6930000  15.1110000  30.2540000  59.5040000  16.9930000  29.6450000
  61.2640000  16.4690000  28.8520000  58.0830000  13.8730000  37.7150000
  57.0730000  15.0000000  36.3700000  60.2860000  13.1210000  36.9520000
  62.4820000  15.7540000  29.0810000  63.5080000  14.6420000  30.3900000
  61.1260000  16.9140000  28.0240000  57.0980000  13.8900000  38.7520000
  59.3130000  13.1490000  37.9410000  61.0870000  12.6340000  37.1040000
  63.1490000  15.7310000  28.4050000  57.3100000  13.2460000  39.9250000
  56.2840000  14.3590000  38.6160000  59.4850000  12.4890000  39.1950000
  58.5270000  12.5320000  40.1540000  56.6430000  13.2690000  40.6010000
  60.2880000  12.0080000  39.3610000  58.6660000  12.0870000  40.9820000
  61.8850000  38.2380000  33.2790000  61.7140000  38.9150000  32.0540000
  60.9090000  38.2430000  34.2820000  63.1290000  37.5090000  33.5110000
  60.9130000  39.4020000  31.9030000  62.6870000  38.8870000  31.0650000
  60.0950000  38.7160000  34.1520000  61.0800000  37.5630000  35.4960000
  64.1130000  37.5040000  32.4920000  63.2990000  36.8290000  34.7240000
  63.9180000  38.1630000  31.2910000  62.5150000  39.5470000  29.8110000
  60.0950000  37.5680000  36.5150000  62.3240000  36.8340000  35.7270000
  64.9280000  37.0360000  32.6360000  64.1130000  36.3560000  34.8550000
  64.9020000  38.1460000  30.2540000  61.7130000  40.0290000  29.6450000
  63.4730000  39.5040000  28.8520000  60.2910000  36.9090000  37.7150000
  59.2810000  38.0360000  36.3700000  62.4940000  36.1570000  36.9520000
  64.6910000  38.7900000  29.0810000  65.7170000  37.6770000  30.3900000
  63.3340000  39.9490000  28.0240000  59.3070000  36.9260000  38.7520000
  61.5220000  36.1840000  37.9410000  63.2950000  35.6700000  37.1040000
  65.3570000  38.7670000  28.4050000  59.5180000  36.2820000  39.9250000
  58.4920000  37.3940000  38.6160000  61.6930000  35.5250000  39.1950000
  60.7360000  35.5680000  40.1540000  58.8510000  36.3050000  40.6010000
  62.4960000  35.0430000  39.3610000  60.8740000  35.1220000  40.9820000
  62.6210000  45.9170000  33.2790000  62.4500000  46.5930000  32.0540000
  61.6450000  45.9220000  34.2820000  63.8650000  45.1870000  33.5110000
  61.6490000  47.0810000  31.9030000  63.4230000  46.5660000  31.0650000
  60.8320000  46.3940000  34.1520000  61.8160000  45.2420000  35.4960000
  64.8490000  45.1830000  32.4920000  64.0360000  44.5070000  34.7240000
  64.6540000  45.8420000  31.2910000  63.2510000  47.2260000  29.8110000
  60.8310000  45.2470000  36.5150000  63.0600000  44.5120000  35.7270000
  65.6640000  44.7150000  32.6360000  64.8490000  44.0350000  34.8550000
  65.6380000  45.8250000  30.2540000  62.4490000  47.7070000  29.6450000
  64.2090000  47.1830000  28.8520000  61.0270000  44.5870000  37.7150000
  60.0170000  45.7140000  36.3700000  63.2300000  43.8360000  36.9520000
  65.4270000  46.4680000  29.0810000  66.4530000  45.3560000  30.3900000
  64.0710000  47.6280000  28.0240000  60.0430000  44.6040000  38.7520000
  62.2580000  43.8630000  37.9410000  64.0310000  43.3480000  37.1040000
  66.0930000  46.4450000  28.4050000  60.2540000  43.9610000  39.9250000
  59.2280000  45.0730000  38.6160000  62.4300000  43.2030000  39.1950000
  61.4720000  43.2460000  40.1540000  59.5870000  43.9840000  40.6010000
  63.2320000  42.7220000  39.3610000  61.6100000  42.8010000  40.9820000
  63.3570000  53.5950000  33.2790000  63.1870000  54.2720000  32.0540000
  62.3810000  53.6000000  34.2820000  64.6010000  52.8660000  33.5110000
  62.3850000  54.7590000  31.9030000  64.1590000  54.2450000  31.0650000
  61.5680000  54.0730000  34.1520000  62.5520000  52.9200000  35.4960000
  65.5850000  52.8610000  32.4920000  64.7720000  52.1860000  34.7240000
  65.3900000  53.5200000  31.2910000  63.9870000  54.9050000  29.8110000
  61.5670000  52.9250000  36.5150000  63.7960000  52.1910000  35.7270000
  66.4000000  52.3930000  32.6360000  65.5850000  51.7130000  34.8550000
  66.3740000  53.5040000  30.2540000  63.1850000  55.3860000  29.6450000
  64.9450000  54.8620000  28.8520000  61.7630000  52.2660000  37.7150000
  60.7530000  53.3930000  36.3700000  63.9660000  51.5140000  36.9520000
  66.1630000  54.1470000  29.0810000  67.1890000  53.0350000  30.3900000
  64.8070000  55.3070000  28.0240000  60.7790000  52.2830000  38.7520000
  62.9940000  51.5420000  37.9410000  64.7680000  51.0270000  37.1040000
  66.8290000  54.1240000  28.4050000  60.9900000  51.6390000  39.9250000
  59.9640000  52.7520000  38.6160000  63.1660000  50.8820000  39.1950000
  62.2080000  50.9250000  40.1540000  60.3240000  51.6620000  40.6010000
  63.9680000  50.4010000  39.3610000  62.3460000  50.4800000  40.9820000
  66.7400000  82.9050000  35.7270000  66.9110000  82.2290000  36.9520000
  67.7160000  82.9000000  34.7240000  65.4960000  83.6350000  35.4960000
  67.7120000  81.7410000  37.1040000  65.9380000  82.2560000  37.9410000
  68.5300000  82.4280000  34.8550000  67.5460000  83.5800000  33.5110000
  64.5120000  83.6400000  36.5150000  65.3260000  84.3150000  34.2820000
  64.7080000  82.9800000  37.7150000  66.1100000  81.5960000  39.1950000
  68.5300000  83.5750000  32.4920000  66.3020000  84.3100000  33.2790000
  63.6980000  84.1070000  36.3700000  64.5120000  84.7870000  34.1520000
  63.7230000  82.9970000  38.7520000  66.9130000  81.1150000  39.3610000
  65.1520000  81.6390000  40.1540000  68.3340000  84.2350000  31.2910000
  69.3440000  83.1080000  32.6360000  66.1310000  84.9860000  32.0540000
  63.9350000  82.3540000  39.9250000  62.9090000  83.4660000  38.6160000
  65.2910000  81.1940000  40.9820000  69.3190000  84.2180000  30.2540000
  67.1040000  84.9590000  31.0650000  65.3300000  85.4740000  31.9030000
  63.2680000  82.3770000  40.6010000  69.1070000  84.8610000  29.0810000
  70.1330000  83.7490000  30.3900000  66.9320000  85.6190000  29.8110000
  67.8900000  85.5760000  28.8520000  69.7740000  84.8380000  28.4050000
  66.1290000  86.1000000  29.6450000  67.7510000  86.0210000  28.0240000
  59.6140000  10.5210000  21.6710000  59.7850000   9.8450000  22.8950000
  60.5900000  10.5160000  20.6670000  58.3700000  11.2500000  21.4390000
  60.5860000   9.3570000  23.0470000  58.8120000   9.8720000  23.8850000
  61.4040000  10.0440000  20.7980000  60.4190000  11.1960000  19.4540000
  57.3860000  11.2550000  22.4580000  58.1990000  11.9310000  20.2260000
  57.5810000  10.5960000  23.6580000  58.9840000   9.2120000  25.1380000
  61.4040000  11.1910000  18.4350000  59.1750000  11.9250000  19.2220000
  56.5710000  11.7230000  22.3130000  57.3860000  12.4030000  20.0950000
  56.5970000  10.6130000  24.6960000  59.7860000   8.7310000  25.3040000
  58.0260000   9.2550000  26.0970000  61.2080000  11.8510000  17.2340000
  62.2180000  10.7240000  18.5800000  59.0050000  12.6020000  17.9980000
  56.8080000   9.9690000  25.8680000  55.7820000  11.0820000  24.5590000
  58.1650000   8.8100000  26.9250000  62.1920000  11.8340000  16.1970000
  59.9770000  12.5750000  17.0080000  58.2040000  13.0900000  17.8460000
  56.1420000   9.9930000  26.5440000  61.9810000  12.4770000  15.0250000
  63.0070000  11.3650000  16.3330000  59.8060000  13.2350000  15.7540000
  60.7630000  13.1920000  14.7950000  62.6480000  12.4540000  14.3480000
  59.0030000  13.7160000  15.5880000  60.6250000  13.6370000  13.9670000
  61.6810000  28.3100000  89.5060000  61.5110000  28.9860000  88.2820000
  60.7060000  28.3150000  90.5100000  62.9260000  27.5800000  89.7380000
  60.7100000  29.4740000  88.1300000  62.4840000  28.9590000  87.2920000
  59.8920000  28.7870000  90.3790000  60.8760000  27.6350000  91.7230000
  63.9100000  27.5750000  88.7190000  63.0960000  26.9000000  90.9510000
  63.7140000  28.2350000  87.5180000  62.3120000  29.6190000  86.0380000
  59.8920000  27.6390000  92.7420000  62.1200000  26.9050000  91.9550000
  64.7240000  27.1080000  88.8640000  63.9100000  26.4280000  91.0820000
  64.6990000  28.2180000  86.4810000  61.5090000  30.1000000  85.8720000
  63.2690000  29.5760000  85.0800000  60.0880000  26.9800000  93.9420000
  59.0780000  28.1070000  92.5970000  62.2910000  26.2290000  93.1790000
  64.4870000  28.8610000  85.3090000  65.5130000  27.7490000  86.6170000
  63.1310000  30.0210000  84.2520000  59.1030000  26.9970000  94.9800000
  61.3180000  26.2560000  94.1690000  63.0920000  25.7410000  93.3310000
  65.1540000  28.8380000  84.6320000  59.3150000  26.3540000  96.1520000
  58.2890000  27.4660000  94.8430000  61.4900000  25.5960000  95.4230000
  60.5320000  25.6390000  96.3810000  58.6480000  26.3770000  96.8280000
  62.2930000  25.1150000  95.5880000  60.6710000  25.1940000  97.2090000
  60.1780000  18.4790000  47.3360000  60.0070000  19.1560000  46.1110000
  59.2020000  18.4840000  48.3390000  61.4220000  17.7500000  47.5670000
  59.2060000  19.6430000  45.9590000  60.9800000  19.1290000  45.1220000
  58.3880000  18.9570000  48.2080000  59.3730000  17.8040000  49.5520000
  62.4060000  17.7450000  46.5480000  61.5920000  17.0700000  48.7810000
  62.2110000  18.4040000  45.3480000  60.8080000  19.7880000  43.8680000
  58.3880000  17.8090000  50.5710000  60.6170000  17.0750000  49.7840000
  63.2200000  17.2770000  46.6930000  62.4060000  16.5970000  48.9110000
  63.1950000  18.3870000  44.3110000  60.0050000  20.2700000  43.7020000
  61.7660000  19.7450000  42.9090000  58.5840000  17.1500000  51.7720000
  57.5740000  18.2770000  50.4270000  60.7870000  16.3980000  51.0090000
  62.9840000  19.0310000  43.1380000  64.0090000  17.9190000  44.4470000
  61.6270000  20.1900000  42.0810000  57.6000000  17.1670000  52.8090000
  59.8140000  16.4250000  51.9980000  61.5880000  15.9110000  51.1600000
  63.6500000  19.0080000  42.4620000  57.8110000  16.5230000  53.9820000
  56.7850000  17.6350000  52.6730000  59.9860000  15.7660000  53.2520000
  59.0290000  15.8090000  54.2110000  57.1440000  16.5460000  54.6580000
  60.7890000  15.2840000  53.4180000  59.1670000  15.3630000  55.0390000
  60.4130000  22.8810000  33.2790000  60.2420000  23.5580000  32.0540000
  59.4370000  22.8860000  34.2820000  61.6570000  22.1520000  33.5110000
  59.4410000  24.0450000  31.9030000  61.2150000  23.5300000  31.0650000
  58.6230000  23.3580000  34.1520000  59.6070000  22.2060000  35.4960000
  62.6410000  22.1470000  32.4920000  61.8270000  21.4720000  34.7240000
  62.4450000  22.8060000  31.2910000  61.0430000  24.1900000  29.8110000
  58.6230000  22.2110000  36.5150000  60.8510000  21.4770000  35.7270000
  63.4550000  21.6790000  32.6360000  62.6410000  20.9990000  34.8550000
  63.4300000  22.7890000  30.2540000  60.2400000  24.6710000  29.6450000
  62.0010000  24.1470000  28.8520000  58.8190000  21.5510000  37.7150000
  57.8090000  22.6780000  36.3700000  61.0220000  20.8000000  36.9520000
  63.2180000  23.4330000  29.0810000  64.2440000  22.3200000  30.3900000
  61.8620000  24.5920000  28.0240000  57.8340000  21.5680000  38.7520000
  60.0490000  20.8270000  37.9410000  61.8230000  20.3120000  37.1040000
  63.8850000  23.4090000  28.4050000  58.0460000  20.9250000  39.9250000
  57.0200000  22.0370000  38.6160000  60.2210000  20.1670000  39.1950000
  59.2630000  20.2100000  40.1540000  57.3790000  20.9480000  40.6010000
  61.0240000  19.6860000  39.3610000  59.4020000  19.7650000  40.9820000
  60.9140000  26.1580000  47.3360000  60.7430000  26.8340000  46.1110000
  59.9380000  26.1630000  48.3390000  62.1580000  25.4280000  47.5670000
  59.9420000  27.3220000  45.9590000  61.7160000  26.8070000  45.1220000
  59.1240000  26.6350000  48.2080000  60.1090000  25.4830000  49.5520000
  63.1420000  25.4240000  46.5480000  62.3290000  24.7480000  48.7810000
  62.9470000  26.0830000  45.3480000  61.5440000  27.4670000  43.8680000
  59.1240000  25.4880000  50.5710000  61.3530000  24.7540000  49.7840000
  63.9570000  24.9560000  46.6930000  63.1420000  24.2760000  48.9110000
  63.9310000  26.0660000  44.3110000  60.7420000  27.9480000  43.7020000
  62.5020000  27.4240000  42.9090000  59.3200000  24.8280000  51.7720000
  58.3100000  25.9550000  50.4270000  61.5230000  24.0770000  51.0090000
  63.7200000  26.7100000  43.1380000  64.7460000  25.5970000  44.4470000
  62.3630000  27.8690000  42.0810000  58.3360000  24.8450000  52.8090000
  60.5510000  24.1040000  51.9980000  62.3240000  23.5890000  51.1600000
  64.3860000  26.6860000  42.4620000  58.5470000  24.2020000  53.9820000
  57.5210000  25.3140000  52.6730000  60.7220000  23.4440000  53.2520000
  59.7650000  23.4870000  54.2110000  57.8800000  24.2250000  54.6580000
  61.5250000  22.9630000  53.4180000  59.9030000  23.0420000  55.0390000
  61.1490000  30.5590000  33.2790000  60.9780000  31.2360000  32.0540000
  60.1730000  30.5650000  34.2820000  62.3930000  29.8300000  33.5110000
  60.1770000  31.7240000  31.9030000  61.9510000  31.2090000  31.0650000
  59.3590000  31.0370000  34.1520000  60.3440000  29.8840000  35.4960000
  63.3770000  29.8250000  32.4920000  62.5630000  29.1500000  34.7240000
  63.1820000  30.4850000  31.2910000  61.7790000  31.8690000  29.8110000
  59.3590000  29.8890000  36.5150000  61.5880000  29.1550000  35.7270000
  64.1910000  29.3580000  32.6360000  63.3770000  28.6780000  34.8550000
  64.1660000  30.4680000  30.2540000  60.9760000  32.3500000  29.6450000
  62.7370000  31.8260000  28.8520000  59.5550000  29.2300000  37.7150000
  58.5450000  30.3570000  36.3700000  61.7580000  28.4790000  36.9520000
  63.9550000  31.1110000  29.0810000  64.9800000  29.9990000  30.3900000
  62.5980000  32.2710000  28.0240000  58.5710000  29.2470000  38.7520000
  60.7850000  28.5060000  37.9410000  62.5590000  27.9910000  37.1040000
  64.6210000  31.0880000  28.4050000  58.7820000  28.6030000  39.9250000
  57.7560000  29.7160000  38.6160000  60.9570000  27.8460000  39.1950000
  60.0000000  27.8890000  40.1540000  58.1150000  28.6270000  40.6010000
  61.7600000  27.3650000  39.3610000  60.1380000  27.4440000  40.9820000
  61.0860000  25.8780000  21.6710000  61.2570000  25.2020000  22.8950000
  62.0620000  25.8730000  20.6670000  59.8420000  26.6080000  21.4390000
  62.0580000  24.7140000  23.0470000  60.2840000  25.2290000  23.8850000
  62.8760000  25.4010000  20.7980000  61.8920000  26.5530000  19.4540000
  58.8580000  26.6120000  22.4580000  59.6720000  27.2880000  20.2260000
  59.0540000  25.9530000  23.6580000  60.4560000  24.5690000  25.1380000
  62.8760000  26.5480000  18.4350000  60.6470000  27.2830000  19.2220000
  58.0440000  27.0800000  22.3130000  58.8580000  27.7600000  20.0950000
  58.0690000  25.9700000  24.6960000  61.2590000  24.0880000  25.3040000
  59.4980000  24.6120000  26.0970000  62.6800000  27.2080000  17.2340000
  63.6900000  26.0810000  18.5800000  60.4770000  27.9590000  17.9980000
  58.2800000  25.3270000  25.8680000  57.2550000  26.4390000  24.5590000
  59.6370000  24.1670000  26.9250000  63.6640000  27.1910000  16.1970000
  61.4500000  27.9320000  17.0080000  59.6760000  28.4470000  17.8460000
  57.6140000  25.3500000  26.5440000  63.4530000  27.8340000  15.0250000
  64.4790000  26.7220000  16.3330000  61.2780000  28.5920000  15.7540000
  62.2350000  28.5490000  14.7950000  64.1200000  27.8110000  14.3480000
  60.4750000  29.0730000  15.5880000  62.0970000  28.9940000  13.9670000
  62.0890000  32.4320000  49.7840000  62.2590000  31.7550000  51.0090000
  63.0650000  32.4270000  48.7810000  60.8450000  33.1610000  49.5520000
  63.0600000  31.2680000  51.1600000  61.2870000  31.7830000  51.9980000
  63.8780000  31.9540000  48.9110000  62.8940000  33.1070000  47.5670000
  59.8600000  33.1660000  50.5710000  60.6740000  33.8410000  48.3390000
  60.0560000  32.5070000  51.7720000  61.4590000  31.1230000  53.2520000
  63.8780000  33.1020000  46.5480000  61.6500000  33.8360000  47.3360000
  59.0460000  33.6340000  50.4270000  59.8610000  34.3140000  48.2080000
  59.0720000  32.5240000  52.8090000  62.2610000  30.6420000  53.4180000
  60.5010000  31.1660000  54.2110000  63.6830000  33.7610000  45.3480000
  64.6930000  32.6340000  46.6930000  61.4800000  34.5130000  46.1110000
  59.2830000  31.8800000  53.9820000  58.2570000  32.9930000  52.6730000
  60.6390000  30.7210000  55.0390000  64.6670000  33.7450000  44.3110000
  62.4520000  34.4860000  45.1220000  60.6780000  35.0000000  45.9590000
  58.6170000  31.9030000  54.6580000  64.4560000  34.3880000  43.1380000
  65.4820000  33.2760000  44.4470000  62.2800000  35.1460000  43.8680000
  63.2380000  35.1030000  42.9090000  65.1220000  34.3650000  42.4620000
  61.4780000  35.6270000  43.7020000  63.1000000  35.5480000  42.0810000
  61.8220000  33.5570000  21.6710000  61.9930000  32.8800000  22.8950000
  62.7980000  33.5520000  20.6670000  60.5780000  34.2860000  21.4390000
  62.7940000  32.3930000  23.0470000  61.0200000  32.9080000  23.8850000
  63.6120000  33.0790000  20.7980000  62.6280000  34.2320000  19.4540000
  59.5940000  34.2910000  22.4580000  60.4080000  34.9660000  20.2260000
  59.7900000  33.6320000  23.6580000  61.1920000  32.2480000  25.1380000
  63.6120000  34.2270000  18.4350000  61.3840000  34.9610000  19.2220000
  58.7800000  34.7590000  22.3130000  59.5940000  35.4390000  20.0950000
  58.8050000  33.6490000  24.6960000  61.9950000  31.7670000  25.3040000
  60.2340000  32.2910000  26.0970000  63.4160000  34.8860000  17.2340000
  64.4260000  33.7590000  18.5800000  61.2130000  35.6380000  17.9980000
  59.0170000  33.0050000  25.8680000  57.9910000  34.1180000  24.5590000
  60.3730000  31.8460000  26.9250000  64.4010000  34.8690000  16.1970000
  62.1860000  35.6110000  17.0080000  60.4120000  36.1250000  17.8460000
  58.3500000  33.0280000  26.5440000  64.1890000  35.5130000  15.0250000
  65.2150000  34.4010000  16.3330000  62.0140000  36.2710000  15.7540000
  62.9720000  36.2270000  14.7950000  64.8560000  35.4900000  14.3480000
  61.2110000  36.7520000  15.5880000  62.8330000  36.6730000  13.9670000
  62.3860000  41.5150000  47.3360000  62.2160000  42.1920000  46.1110000
  61.4100000  41.5200000  48.3390000  63.6300000  40.7860000  47.5670000
  61.4140000  42.6790000  45.9590000  63.1880000  42.1640000  45.1220000
  60.5970000  41.9920000  48.2080000  61.5810000  40.8400000  49.5520000
  64.6150000  40.7810000  46.5480000  63.8010000  40.1060000  48.7810000
  64.4190000  41.4400000  45.3480000  63.0160000  42.8240000  43.8680000
  60.5970000  40.8450000  50.5710000  62.8250000  40.1110000  49.7840000
  65.4290000  40.3130000  46.6930000  64.6140000  39.6330000  48.9110000
  65.4030000  41.4230000  44.3110000  62.2140000  43.3050000  43.7020000
  63.9740000  42.7810000  42.9090000  60.7920000  40.1860000  51.7720000
  59.7820000  41.3120000  50.4270000  62.9950000  39.4340000  51.0090000
  65.1920000  42.0670000  43.1380000  66.2180000  40.9540000  44.4470000
  63.8360000  43.2260000  42.0810000  59.8080000  40.2020000  52.8090000
  62.0230000  39.4610000  51.9980000  63.7970000  38.9460000  51.1600000
  65.8580000  42.0430000  42.4620000  60.0190000  39.5590000  53.9820000
  58.9930000  40.6710000  52.6730000  62.1950000  38.8010000  53.2520000
  61.2370000  38.8440000  54.2110000  59.3530000  39.5820000  54.6580000
  62.9970000  38.3200000  53.4180000  61.3750000  38.3990000  55.0390000
  61.3210000  30.2800000   7.6140000  61.4920000  29.6030000   8.8380000
  62.2970000  30.2750000   6.6100000  60.0770000  31.0090000   7.3820000
  62.2930000  29.1160000   8.9900000  60.5190000  29.6310000   9.8280000
  63.1110000  29.8030000   6.7410000  62.1260000  30.9550000   5.3970000
  59.0930000  31.0140000   8.4010000  59.9070000  31.6890000   6.1690000
  59.2880000  30.3550000   9.6010000  60.6910000  28.9710000  11.0820000
  63.1110000  30.9500000   4.3780000  60.8820000  31.6840000   5.1650000
  58.2780000  31.4820000   8.2560000  59.0930000  32.1620000   6.0380000
  58.3040000  30.3720000  10.6390000  61.4930000  28.4900000  11.2470000
  59.7330000  29.0140000  12.0400000  62.9150000  31.6100000   3.1770000
  63.9250000  30.4830000   4.5230000  60.7120000  32.3610000   3.9410000
  58.5150000  29.7280000  11.8110000  57.4890000  30.8410000  10.5020000
  59.8720000  28.5690000  12.8680000  63.8990000  31.5930000   2.1400000
  61.6840000  32.3340000   2.9510000  59.9110000  32.8490000   3.7890000
  57.8490000  29.7520000  12.4870000  63.6880000  32.2360000   0.9680000
  64.7140000  31.1240000   2.2760000  61.5130000  32.9940000   1.6970000
  62.4700000  32.9510000   0.7390000  64.3550000  32.2130000   0.2920000
  60.7100000  33.4750000   1.5310000  62.3320000  33.3960000  -0.0890000
  62.1200000  42.6400000  19.2220000  61.9490000  43.3160000  17.9980000
  61.1440000  42.6450000  20.2260000  63.3640000  41.9110000  19.4540000
  61.1480000  43.8040000  17.8460000  62.9220000  43.2890000  17.0080000
  60.3300000  43.1170000  20.0950000  61.3140000  41.9650000  21.4390000
  64.3480000  41.9060000  18.4350000  63.5340000  41.2300000  20.6670000
  64.1520000  42.5650000  17.2340000  62.7500000  43.9490000  15.7540000
  60.3300000  41.9700000  22.4580000  62.5590000  41.2360000  21.6710000
  65.1620000  41.4380000  18.5800000  64.3480000  40.7580000  20.7980000
  65.1370000  42.5480000  16.1970000  61.9470000  44.4300000  15.5880000
  63.7080000  43.9060000  14.7950000  60.5260000  41.3100000  23.6580000
  59.5160000  42.4370000  22.3130000  62.7290000  40.5590000  22.8950000
  64.9260000  43.1920000  15.0250000  65.9510000  42.0790000  16.3330000
  63.5690000  44.3510000  13.9670000  59.5420000  41.3270000  24.6960000
  61.7560000  40.5860000  23.8850000  63.5300000  40.0710000  23.0470000
  65.5920000  43.1680000  14.3480000  59.7530000  40.6840000  25.8680000
  58.7270000  41.7960000  24.5590000  61.9280000  39.9260000  25.1380000
  60.9710000  39.9690000  26.0970000  59.0860000  40.7070000  26.5440000
  62.7310000  39.4450000  25.3040000  61.1090000  39.5240000  26.9250000
  63.1220000  49.1930000  47.3360000  62.9520000  49.8700000  46.1110000
  62.1460000  49.1990000  48.3390000  64.3660000  48.4640000  47.5670000
  62.1510000  50.3580000  45.9590000  63.9240000  49.8430000  45.1220000
  61.3330000  49.6710000  48.2080000  62.3170000  48.5180000  49.5520000
  65.3510000  48.4590000  46.5480000  64.5370000  47.7840000  48.7810000
  65.1550000  49.1190000  45.3480000  63.7530000  50.5030000  43.8680000
  61.3330000  48.5230000  50.5710000  63.5610000  47.7890000  49.7840000
  66.1650000  47.9920000  46.6930000  65.3510000  47.3120000  48.9110000
  66.1390000  49.1020000  44.3110000  62.9500000  50.9840000  43.7020000
  64.7100000  50.4600000  42.9090000  61.5280000  47.8640000  51.7720000
  60.5180000  48.9910000  50.4270000  63.7320000  47.1130000  51.0090000
  65.9280000  49.7450000  43.1380000  66.9540000  48.6330000  44.4470000
  64.5720000  50.9050000  42.0810000  60.5440000  47.8810000  52.8090000
  62.7590000  47.1400000  51.9980000  64.5330000  46.6250000  51.1600000
  66.5950000  49.7220000  42.4620000  60.7550000  47.2370000  53.9820000
  59.7290000  48.3500000  52.6730000  62.9310000  46.4800000  53.2520000
  61.9730000  46.5230000  54.2110000  60.0890000  47.2610000  54.6580000
  63.7330000  45.9990000  53.4180000  62.1120000  46.0780000  55.0390000
  62.0570000  37.9590000   7.6140000  62.2280000  37.2820000   8.8380000
  63.0330000  37.9540000   6.6100000  60.8130000  38.6880000   7.3820000
  63.0290000  36.7950000   8.9900000  61.2550000  37.3090000   9.8280000
  63.8470000  37.4810000   6.7410000  62.8620000  38.6340000   5.3970000
  59.8290000  38.6930000   8.4010000  60.6430000  39.3680000   6.1690000
  60.0240000  38.0340000   9.6010000  61.4270000  36.6490000  11.0820000
  63.8470000  38.6290000   4.3780000  61.6180000  39.3630000   5.1650000
  59.0150000  39.1610000   8.2560000  59.8290000  39.8410000   6.0380000
  59.0400000  38.0500000  10.6390000  62.2300000  36.1680000  11.2470000
  60.4690000  36.6920000  12.0400000  63.6510000  39.2880000   3.1770000
  64.6610000  38.1610000   4.5230000  61.4480000  40.0400000   3.9410000
  59.2510000  37.4070000  11.8110000  58.2260000  38.5190000  10.5020000
  60.6080000  36.2470000  12.8680000  64.6350000  39.2710000   2.1400000
  62.4210000  40.0120000   2.9510000  60.6470000  40.5270000   3.7890000
  58.5850000  37.4300000  12.4870000  64.4240000  39.9150000   0.9680000
  65.4500000  38.8020000   2.2760000  62.2490000  40.6720000   1.6970000
  63.2060000  40.6290000   0.7390000  65.0910000  39.8920000   0.2920000
  61.4460000  41.1530000   1.5310000  63.0680000  41.0740000  -0.0890000
  62.8560000  50.3180000  19.2220000  62.6850000  50.9950000  17.9980000
  61.8800000  50.3230000  20.2260000  64.1000000  49.5890000  19.4540000
  61.8840000  51.4830000  17.8460000  63.6580000  50.9680000  17.0080000
  61.0660000  50.7960000  20.0950000  62.0510000  49.6430000  21.4390000
  65.0840000  49.5840000  18.4350000  64.2700000  48.9090000  20.6670000
  64.8890000  50.2440000  17.2340000  63.4860000  51.6280000  15.7540000
  61.0660000  49.6480000  22.4580000  63.2950000  48.9140000  21.6710000
  65.8990000  49.1170000  18.5800000  65.0840000  48.4370000  20.7980000
  65.8730000  50.2270000  16.1970000  62.6830000  52.1090000  15.5880000
  64.4440000  51.5850000  14.7950000  61.2620000  48.9890000  23.6580000
  60.2520000  50.1160000  22.3130000  63.4650000  48.2380000  22.8950000
  65.6620000  50.8700000  15.0250000  66.6880000  49.7580000  16.3330000
  64.3050000  52.0300000  13.9670000  60.2780000  49.0060000  24.6960000
  62.4930000  48.2650000  23.8850000  64.2660000  47.7500000  23.0470000
  66.3280000  50.8470000  14.3480000  60.4890000  48.3620000  25.8680000
  59.4630000  49.4750000  24.5590000  62.6640000  47.6050000  25.1380000
  61.7070000  47.6480000  26.0970000  59.8220000  48.3860000  26.5440000
  63.4670000  47.1240000  25.3040000  61.8450000  47.2030000  26.9250000
  64.2970000  55.4680000  49.7840000  64.4680000  54.7910000  51.0090000
  65.2730000  55.4630000  48.7810000  63.0530000  56.1970000  49.5520000
  65.2690000  54.3040000  51.1600000  63.4950000  54.8180000  51.9980000
  66.0870000  54.9900000  48.9110000  65.1020000  56.1430000  47.5670000
  62.0690000  56.2020000  50.5710000  62.8830000  56.8770000  48.3390000
  62.2640000  55.5430000  51.7720000  63.6670000  54.1590000  53.2520000
  66.0870000  56.1380000  46.5480000  63.8580000  56.8720000  47.3360000
  61.2540000  56.6700000  50.4270000  62.0690000  57.3500000  48.2080000
  61.2800000  55.5600000  52.8090000  64.4700000  53.6770000  53.4180000
  62.7090000  54.2020000  54.2110000  65.8910000  56.7970000  45.3480000
  66.9010000  55.6700000  46.6930000  63.6880000  57.5490000  46.1110000
  61.4910000  54.9160000  53.9820000  60.4650000  56.0280000  52.6730000
  62.8480000  53.7560000  55.0390000  66.8750000  56.7800000  44.3110000
  64.6600000  57.5220000  45.1220000  62.8870000  58.0360000  45.9590000
  60.8250000  54.9390000  54.6580000  66.6640000  57.4240000  43.1380000
  67.6900000  56.3110000  44.4470000  64.4890000  58.1810000  43.8680000
  65.4460000  58.1380000  42.9090000  67.3310000  57.4010000  42.4620000
  63.6860000  58.6630000  43.7020000  65.3080000  58.5830000  42.0810000
  62.3550000  47.0420000   5.1650000  62.1840000  47.7180000   3.9410000
  61.3790000  47.0470000   6.1690000  63.5990000  46.3120000   5.3970000
  61.3830000  48.2060000   3.7890000  63.1570000  47.6910000   2.9510000
  60.5650000  47.5190000   6.0380000  61.5490000  46.3670000   7.3820000
  64.5830000  46.3070000   4.3780000  63.7690000  45.6320000   6.6100000
  64.3870000  46.9670000   3.1770000  62.9850000  48.3510000   1.6970000
  60.5650000  46.3710000   8.4010000  62.7930000  45.6370000   7.6140000
  65.3970000  45.8400000   4.5230000  64.5830000  45.1600000   6.7410000
  65.3720000  46.9500000   2.1400000  62.1820000  48.8320000   1.5310000
  63.9430000  48.3080000   0.7390000  60.7610000  45.7120000   9.6010000
  59.7510000  46.8390000   8.2560000  62.9640000  44.9610000   8.8380000
  65.1600000  47.5930000   0.9680000  66.1860000  46.4810000   2.2760000
  63.8040000  48.7530000  -0.0890000  59.7760000  45.7290000  10.6390000
  61.9910000  44.9880000   9.8280000  63.7650000  44.4730000   8.9900000
  65.8270000  47.5700000   0.2920000  59.9880000  45.0860000  11.8110000
  58.9620000  46.1980000  10.5020000  62.1630000  44.3280000  11.0820000
  61.2050000  44.3710000  12.0400000  59.3210000  45.1090000  12.4870000
  62.9660000  43.8470000  11.2470000  61.3440000  43.9260000  12.8680000
  64.5320000  59.8700000  35.7270000  64.7030000  59.1930000  36.9520000
  65.5080000  59.8650000  34.7240000  63.2880000  60.5990000  35.4960000
  65.5040000  58.7050000  37.1040000  63.7300000  59.2200000  37.9410000
  66.3210000  59.3920000  34.8550000  65.3370000  60.5450000  33.5110000
  62.3040000  60.6040000  36.5150000  63.1170000  61.2790000  34.2820000
  62.4990000  59.9440000  37.7150000  63.9020000  58.5600000  39.1950000
  66.3220000  60.5400000  32.4920000  64.0930000  61.2740000  33.2790000
  61.4890000  61.0710000  36.3700000  62.3040000  61.7510000  34.1520000
  61.5150000  59.9610000  38.7520000  64.7040000  58.0790000  39.3610000
  62.9440000  58.6030000  40.1540000  66.1260000  61.1990000  31.2910000
  67.1360000  60.0720000  32.6360000  63.9230000  61.9500000  32.0540000
  61.7260000  59.3180000  39.9250000  60.7000000  60.4300000  38.6160000
  63.0820000  58.1580000  40.9820000  67.1100000  61.1820000  30.2540000
  64.8950000  61.9230000  31.0650000  63.1220000  62.4380000  31.9030000
  61.0600000  59.3410000  40.6010000  66.8990000  61.8260000  29.0810000
  67.9250000  60.7130000  30.3900000  64.7230000  62.5830000  29.8110000
  65.6810000  62.5400000  28.8520000  67.5660000  61.8020000  28.4050000
  63.9210000  63.0640000  29.6450000  65.5430000  62.9850000  28.0240000
  65.0330000  63.1460000  49.7840000  65.2040000  62.4700000  51.0090000
  66.0090000  63.1410000  48.7810000  63.7890000  63.8760000  49.5520000
  66.0050000  61.9820000  51.1600000  64.2310000  62.4970000  51.9980000
  66.8230000  62.6690000  48.9110000  65.8390000  63.8210000  47.5670000
  62.8050000  63.8810000  50.5710000  63.6190000  64.5560000  48.3390000
  63.0010000  63.2210000  51.7720000  64.4030000  61.8370000  53.2520000
  66.8230000  63.8170000  46.5480000  64.5940000  64.5510000  47.3360000
  61.9910000  64.3480000  50.4270000  62.8050000  65.0280000  48.2080000
  62.0160000  63.2380000  52.8090000  65.2060000  61.3560000  53.4180000
  63.4450000  61.8800000  54.2110000  66.6270000  64.4760000  45.3480000
  67.6370000  63.3490000  46.6930000  64.4240000  65.2270000  46.1110000
  62.2270000  62.5950000  53.9820000  61.2020000  63.7070000  52.6730000
  63.5840000  61.4350000  55.0390000  67.6110000  64.4590000  44.3110000
  65.3970000  65.2000000  45.1220000  63.6230000  65.7150000  45.9590000
  61.5610000  62.6180000  54.6580000  67.4000000  65.1020000  43.1380000
  68.4260000  63.9900000  44.4470000  65.2250000  65.8600000  43.8680000
  66.1820000  65.8170000  42.9090000  68.0670000  65.0790000  42.4620000
  64.4220000  66.3410000  43.7020000  66.0440000  66.2620000  42.0810000
  64.8290000  68.9520000  33.2790000  64.6590000  69.6290000  32.0540000
  63.8540000  68.9580000  34.2820000  66.0730000  68.2230000  33.5110000
  63.8580000  70.1170000  31.9030000  65.6310000  69.6020000  31.0650000
  63.0400000  69.4300000  34.1520000  64.0240000  68.2770000  35.4960000
  67.0580000  68.2180000  32.4920000  66.2440000  67.5430000  34.7240000
  66.8620000  68.8780000  31.2910000  65.4600000  70.2620000  29.8110000
  63.0400000  68.2820000  36.5150000  65.2680000  67.5480000  35.7270000
  67.8720000  67.7510000  32.6360000  67.0580000  67.0710000  34.8550000
  67.8460000  68.8610000  30.2540000  64.6570000  70.7430000  29.6450000
  66.4170000  70.2190000  28.8520000  63.2350000  67.6230000  37.7150000
  62.2250000  68.7500000  36.3700000  65.4390000  66.8720000  36.9520000
  67.6350000  69.5040000  29.0810000  68.6610000  68.3920000  30.3900000
  66.2790000  70.6640000  28.0240000  62.2510000  67.6400000  38.7520000
  64.4660000  66.8990000  37.9410000  66.2400000  66.3840000  37.1040000
  68.3020000  69.4810000  28.4050000  62.4620000  66.9960000  39.9250000
  61.4360000  68.1090000  38.6160000  64.6380000  66.2390000  39.1950000
  63.6800000  66.2820000  40.1540000  61.7960000  67.0200000  40.6010000
  65.4400000  65.7580000  39.3610000  63.8190000  65.8370000  40.9820000
  65.5030000  71.9500000  21.6710000  65.6730000  71.2730000  22.8950000
  66.4790000  71.9450000  20.6670000  64.2590000  72.6790000  21.4390000
  66.4750000  70.7860000  23.0470000  64.7010000  71.3010000  23.8850000
  67.2920000  71.4720000  20.7980000  66.3080000  72.6250000  19.4540000
  63.2750000  72.6840000  22.4580000  64.0880000  73.3590000  20.2260000
  63.4700000  72.0250000  23.6580000  64.8730000  70.6410000  25.1380000
  67.2930000  72.6200000  18.4350000  65.0640000  73.3540000  19.2220000
  62.4600000  73.1520000  22.3130000  63.2750000  73.8320000  20.0950000
  62.4860000  72.0420000  24.6960000  65.6750000  70.1590000  25.3040000
  63.9150000  70.6840000  26.0970000  67.0970000  73.2790000  17.2340000
  68.1070000  72.1520000  18.5800000  64.8940000  74.0310000  17.9980000
  62.6970000  71.3980000  25.8680000  61.6710000  72.5110000  24.5590000
  64.0530000  70.2390000  26.9250000  68.0810000  73.2620000  16.1970000
  65.8660000  74.0040000  17.0080000  64.0930000  74.5180000  17.8460000
  62.0310000  71.4210000  26.5440000  67.8700000  73.9060000  15.0250000
  68.8960000  72.7940000  16.3330000  65.6940000  74.6630000  15.7540000
  66.6520000  74.6200000  14.7950000  68.5360000  73.8830000  14.3480000
  64.8920000  75.1450000  15.5880000  66.5140000  75.0660000  13.9670000
  65.5650000  76.6310000  33.2790000  65.3950000  77.3080000  32.0540000
  64.5900000  76.6360000  34.2820000  66.8090000  75.9020000  33.5110000
  64.5940000  77.7950000  31.9030000  66.3680000  77.2800000  31.0650000
  63.7760000  77.1090000  34.1520000  64.7600000  75.9560000  35.4960000
  67.7940000  75.8970000  32.4920000  66.9800000  75.2220000  34.7240000
  67.5980000  76.5560000  31.2910000  66.1960000  77.9400000  29.8110000
  63.7760000  75.9610000  36.5150000  66.0040000  75.2270000  35.7270000
  68.6080000  75.4290000  32.6360000  67.7940000  74.7490000  34.8550000
  68.5820000  76.5390000  30.2540000  65.3930000  78.4210000  29.6450000
  67.1530000  77.8970000  28.8520000  63.9710000  75.3020000  37.7150000
  62.9620000  76.4290000  36.3700000  66.1750000  74.5500000  36.9520000
  68.3710000  77.1830000  29.0810000  69.3970000  76.0700000  30.3900000
  67.0150000  78.3420000  28.0240000  62.9870000  75.3190000  38.7520000
  65.2020000  74.5770000  37.9410000  66.9760000  74.0630000  37.1040000
  69.0380000  77.1600000  28.4050000  63.1980000  74.6750000  39.9250000
  62.1730000  75.7870000  38.6160000  65.3740000  73.9170000  39.1950000
  64.4160000  73.9610000  40.1540000  62.5320000  74.6980000  40.6010000
  66.1770000  73.4360000  39.3610000  64.5550000  73.5150000  40.9820000
  67.0070000  81.7810000  63.8410000  67.1770000  81.1040000  65.0650000
  67.9830000  81.7750000  62.8370000  65.7630000  82.5100000  63.6090000
  67.9780000  80.6160000  65.2170000  66.2050000  81.1310000  66.0550000
  68.7960000  81.3030000  62.9680000  67.8120000  82.4550000  61.6240000
  64.7780000  82.5150000  64.6280000  65.5920000  83.1900000  62.3960000
  64.9740000  81.8550000  65.8290000  66.3770000  80.4710000  67.3090000
  68.7960000  82.4510000  60.6050000  66.5680000  83.1850000  61.3920000
  63.9640000  82.9820000  64.4830000  64.7790000  83.6620000  62.2650000
  63.9900000  81.8720000  66.8660000  67.1790000  79.9900000  67.4750000
  65.4190000  80.5140000  68.2680000  68.6010000  83.1100000  59.4050000
  69.6110000  81.9830000  60.7500000  66.3970000  83.8610000  60.1680000
  64.2010000  81.2290000  68.0380000  63.1750000  82.3410000  66.7300000
  65.5570000  80.0690000  69.0960000  69.5850000  83.0930000  58.3670000
  67.3700000  83.8340000  59.1780000  65.5960000  84.3490000  60.0160000
  63.5340000  81.2520000  68.7150000  69.3740000  83.7370000  57.1950000
  70.4000000  82.6240000  58.5040000  67.1980000  84.4940000  57.9250000
  68.1560000  84.4510000  56.9660000  70.0400000  83.7130000  56.5190000
  66.3960000  84.9750000  57.7590000  68.0170000  84.8960000  56.1380000
  67.5080000  85.0570000  77.8980000  67.6790000  84.3810000  79.1220000
  68.4840000  85.0520000  76.8940000  66.2640000  85.7860000  77.6660000
  68.4800000  83.8930000  79.2740000  66.7060000  84.4080000  80.1120000
  69.2980000  84.5800000  77.0250000  68.3130000  85.7320000  75.6810000
  65.2800000  85.7910000  78.6850000  66.0930000  86.4670000  76.4530000
  65.4750000  85.1320000  79.8860000  66.8780000  83.7480000  81.3660000
  69.2980000  85.7270000  74.6620000  67.0690000  86.4610000  75.4490000
  64.4650000  86.2590000  78.5400000  65.2800000  86.9390000  76.3220000
  64.4910000  85.1490000  80.9230000  67.6800000  83.2670000  81.5320000
  65.9200000  83.7910000  82.3240000  69.1020000  86.3870000  73.4620000
  70.1120000  85.2600000  74.8070000  66.8990000  87.1380000  74.2250000
  64.7020000  84.5050000  82.0950000  63.6760000  85.6180000  80.7870000
  66.0590000  83.3460000  83.1520000  70.0860000  86.3700000  72.4240000
  67.8710000  87.1110000  73.2350000  66.0980000  87.6260000  74.0730000
  64.0360000  84.5290000  82.7710000  69.8750000  87.0130000  71.2520000
  70.9010000  85.9010000  72.5610000  67.7000000  87.7710000  71.9810000
  68.6570000  87.7280000  71.0230000  70.5420000  86.9900000  70.5760000
  66.8970000  88.2520000  71.8150000  68.5190000  88.1730000  70.1950000
  65.8000000  81.0330000  19.2220000  65.6300000  81.7090000  17.9980000
  64.8240000  81.0380000  20.2260000  67.0440000  80.3040000  19.4540000
  64.8290000  82.1970000  17.8460000  66.6020000  81.6820000  17.0080000
  64.0110000  81.5100000  20.0950000  64.9950000  80.3580000  21.4390000
  68.0290000  80.2990000  18.4350000  67.2150000  79.6230000  20.6670000
  67.8330000  80.9580000  17.2340000  66.4310000  82.3420000  15.7540000
  64.0110000  80.3630000  22.4580000  66.2390000  79.6290000  21.6710000
  68.8430000  79.8310000  18.5800000  68.0290000  79.1510000  20.7980000
  68.8170000  80.9410000  16.1970000  65.6280000  82.8230000  15.5880000
  67.3880000  82.2990000  14.7950000  64.2060000  79.7030000  23.6580000
  63.1960000  80.8300000  22.3130000  66.4100000  78.9520000  22.8950000
  68.6060000  81.5850000  15.0250000  69.6320000  80.4720000  16.3330000
  67.2500000  82.7440000  13.9670000  63.2220000  79.7200000  24.6960000
  65.4370000  78.9790000  23.8850000  67.2110000  78.4640000  23.0470000
  69.2730000  81.5610000  14.3480000  63.4330000  79.0770000  25.8680000
  62.4070000  80.1890000  24.5590000  65.6090000  78.3190000  25.1380000
  64.6510000  78.3620000  26.0970000  62.7670000  79.1000000  26.5440000
  66.4110000  77.8380000  25.3040000  64.7900000  77.9170000  26.9250000
  58.6740000   8.6490000   5.1650000  58.5030000   9.3250000   3.9410000
  57.6980000   8.6540000   6.1690000  59.9180000   7.9190000   5.3970000
  57.7020000   9.8130000   3.7890000  59.4760000   9.2980000   2.9510000
  56.8850000   9.1260000   6.0380000  57.8690000   7.9740000   7.3820000
  60.9020000   7.9140000   4.3780000  60.0890000   7.2390000   6.6100000
  60.7070000   8.5740000   3.1770000  59.3040000   9.9580000   1.6970000
  56.8840000   7.9780000   8.4010000  59.1130000   7.2440000   7.6140000
  61.7170000   7.4470000   4.5230000  60.9020000   6.7670000   6.7410000
  61.6910000   8.5570000   2.1400000  58.5020000  10.4390000   1.5310000
  60.2620000   9.9150000   0.7390000  57.0800000   7.3190000   9.6010000
  56.0700000   8.4460000   8.2560000  59.2830000   6.5680000   8.8380000
  61.4800000   9.2000000   0.9680000  62.5060000   8.0880000   2.2760000
  60.1240000  10.3600000  -0.0890000  56.0960000   7.3360000  10.6390000
  58.3110000   6.5950000   9.8280000  60.0840000   6.0800000   8.9900000
  62.1460000   9.1770000   0.2920000  56.3070000   6.6930000  11.8110000
  55.2810000   7.8050000  10.5020000  58.4830000   5.9350000  11.0820000
  57.5250000   5.9780000  12.0400000  55.6400000   6.7160000  12.4870000
  59.2850000   5.4540000  11.2470000  57.6630000   5.5330000  12.8680000
  59.9110000  19.6040000  19.2220000  59.7410000  20.2810000  17.9980000
  58.9360000  19.6090000  20.2260000  61.1550000  18.8750000  19.4540000
  58.9400000  20.7680000  17.8460000  60.7130000  20.2530000  17.0080000
  58.1220000  20.0820000  20.0950000  59.1060000  18.9290000  21.4390000
  62.1400000  18.8700000  18.4350000  61.3260000  18.1950000  20.6670000
  61.9440000  19.5290000  17.2340000  60.5420000  20.9130000  15.7540000
  58.1220000  18.9340000  22.4580000  60.3500000  18.2000000  21.6710000
  62.9540000  18.4020000  18.5800000  62.1400000  17.7220000  20.7980000
  62.9280000  19.5120000  16.1970000  59.7390000  21.3940000  15.5880000
  61.4990000  20.8700000  14.7950000  58.3170000  18.2750000  23.6580000
  57.3070000  19.4020000  22.3130000  60.5210000  17.5230000  22.8950000
  62.7170000  20.1560000  15.0250000  63.7430000  19.0430000  16.3330000
  61.3610000  21.3150000  13.9670000  57.3330000  18.2910000  24.6960000
  59.5480000  17.5500000  23.8850000  61.3220000  17.0360000  23.0470000
  63.3840000  20.1330000  14.3480000  57.5440000  17.6480000  25.8680000
  56.5180000  18.7600000  24.5590000  59.7200000  16.8900000  25.1380000
  58.7620000  16.9340000  26.0970000  56.8780000  17.6710000  26.5440000
  60.5230000  16.4090000  25.3040000  58.9010000  16.4880000  26.9250000
  62.6520000  40.3900000  75.4490000  62.4820000  41.0670000  74.2250000
  61.6770000  40.3950000  76.4530000  63.8970000  39.6610000  75.6810000
  61.6810000  41.5540000  74.0730000  63.4550000  41.0390000  73.2350000
  60.8630000  40.8680000  76.3220000  61.8470000  39.7150000  77.6660000
  64.8810000  39.6560000  74.6620000  64.0670000  38.9810000  76.8940000
  64.6850000  40.3150000  73.4620000  63.2830000  41.6990000  71.9810000
  60.8630000  39.7200000  78.6850000  63.0910000  38.9860000  77.8980000
  65.6950000  39.1880000  74.8070000  64.8810000  38.5080000  77.0250000
  65.6700000  40.2980000  72.4240000  62.4800000  42.1800000  71.8150000
  64.2400000  41.6560000  71.0230000  61.0590000  39.0610000  79.8860000
  60.0490000  40.1870000  78.5400000  63.2620000  38.3090000  79.1220000
  65.4580000  40.9420000  71.2520000  66.4840000  39.8290000  72.5610000
  64.1020000  42.1010000  70.1950000  60.0740000  39.0770000  80.9230000
  62.2890000  38.3360000  80.1120000  64.0630000  37.8220000  79.2740000
  66.1250000  40.9190000  70.5760000  60.2860000  38.4340000  82.0950000
  59.2600000  39.5460000  80.7870000  62.4610000  37.6760000  81.3660000
  61.5030000  37.7190000  82.3240000  59.6190000  38.4570000  82.7710000
  63.2640000  37.1950000  81.5320000  61.6420000  37.2740000  83.1520000
  60.5850000  22.6020000   7.6140000  60.7560000  21.9250000   8.8380000
  61.5610000  22.5960000   6.6100000  59.3410000  23.3310000   7.3820000
  61.5570000  21.4370000   8.9900000  59.7830000  21.9520000   9.8280000
  62.3740000  22.1240000   6.7410000  61.3900000  23.2770000   5.3970000
  58.3570000  23.3360000   8.4010000  59.1700000  24.0110000   6.1690000
  58.5520000  22.6760000   9.6010000  59.9550000  21.2920000  11.0820000
  62.3750000  23.2720000   4.3780000  60.1460000  24.0060000   5.1650000
  57.5420000  23.8030000   8.2560000  58.3570000  24.4830000   6.0380000
  57.5680000  22.6930000  10.6390000  60.7570000  20.8110000  11.2470000
  58.9970000  21.3350000  12.0400000  62.1790000  23.9310000   3.1770000
  63.1890000  22.8040000   4.5230000  59.9760000  24.6820000   3.9410000
  57.7790000  22.0500000  11.8110000  56.7530000  23.1620000  10.5020000
  59.1350000  20.8900000  12.8680000  63.1630000  23.9140000   2.1400000
  60.9480000  24.6550000   2.9510000  59.1750000  25.1700000   3.7890000
  57.1130000  22.0730000  12.4870000  62.9520000  24.5580000   0.9680000
  63.9780000  23.4450000   2.2760000  60.7760000  25.3150000   1.6970000
  61.7340000  25.2720000   0.7390000  63.6190000  24.5340000   0.2920000
  59.9740000  25.7960000   1.5310000  61.5960000  25.7170000  -0.0890000
  62.5900000  35.7090000  63.8410000  62.7610000  35.0320000  65.0650000
  63.5660000  35.7040000  62.8370000  61.3460000  36.4380000  63.6090000
  63.5620000  34.5450000  65.2170000  61.7880000  35.0590000  66.0550000
  64.3800000  35.2310000  62.9680000  63.3950000  36.3840000  61.6240000
  60.3620000  36.4430000  64.6280000  61.1750000  37.1180000  62.3960000
  60.5570000  35.7840000  65.8290000  61.9600000  34.4000000  67.3090000
  64.3800000  36.3790000  60.6050000  62.1510000  37.1130000  61.3920000
  59.5470000  36.9110000  64.4830000  60.3620000  37.5910000  62.2650000
  59.5730000  35.8010000  66.8660000  62.7620000  33.9180000  67.4750000
  61.0020000  34.4430000  68.2680000  64.1840000  37.0380000  59.4050000
  65.1940000  35.9110000  60.7500000  61.9810000  37.7900000  60.1680000
  59.7840000  35.1570000  68.0380000  58.7580000  36.2690000  66.7300000
  61.1410000  33.9980000  69.0960000  65.1680000  37.0210000  58.3670000
  62.9530000  37.7630000  59.1780000  61.1800000  38.2770000  60.0160000
  59.1180000  35.1800000  68.7150000  64.9570000  37.6650000  57.1950000
  65.9830000  36.5530000  58.5040000  62.7820000  38.4220000  57.9250000
  63.7390000  38.3790000  56.9660000  65.6240000  37.6420000  56.5190000
  61.9790000  38.9040000  57.7590000  63.6010000  38.8240000  56.1380000
  63.5930000  42.2630000  91.9550000  63.7630000  41.5860000  93.1790000
  64.5680000  42.2570000  90.9510000  62.3490000  42.9920000  91.7230000
  64.5640000  41.0980000  93.3310000  62.7910000  41.6130000  94.1690000
  65.3820000  41.7850000  91.0820000  64.3980000  42.9380000  89.7380000
  61.3640000  42.9970000  92.7420000  62.1780000  43.6720000  90.5100000
  61.5600000  42.3370000  93.9420000  62.9620000  40.9530000  95.4230000
  65.3820000  42.9330000  88.7190000  63.1540000  43.6670000  89.5060000
  60.5500000  43.4640000  92.5970000  61.3640000  44.1440000  90.3790000
  60.5760000  42.3540000  94.9800000  63.7650000  40.4720000  95.5880000
  62.0050000  40.9960000  96.3810000  65.1870000  43.5920000  87.5180000
  66.1960000  42.4650000  88.8640000  62.9830000  44.3430000  88.2820000
  60.7870000  41.7110000  96.1520000  59.7610000  42.8230000  94.8430000
  62.1430000  40.5510000  97.2090000  66.1710000  43.5750000  86.4810000
  63.9560000  44.3160000  87.2920000  62.1820000  44.8310000  88.1300000
  60.1200000  41.7340000  96.8280000  65.9600000  44.2190000  85.3090000
  66.9850000  43.1060000  86.6170000  63.7840000  44.9760000  86.0380000
  64.7420000  44.9330000  85.0800000  66.6260000  44.1950000  84.6320000
  62.9810000  45.4570000  85.8720000  64.6030000  45.3780000  84.2520000
  62.8870000  44.7920000  61.3920000  62.7170000  45.4680000  60.1680000
  61.9120000  44.7970000  62.3960000  64.1310000  44.0620000  61.6240000
  61.9160000  45.9560000  60.0160000  63.6890000  45.4410000  59.1780000
  61.0980000  45.2690000  62.2650000  62.0820000  44.1170000  63.6090000
  65.1160000  44.0580000  60.6050000  64.3020000  43.3820000  62.8370000
  64.9200000  44.7170000  59.4050000  63.5180000  46.1010000  57.9250000
  61.0980000  44.1220000  64.6280000  63.3260000  43.3880000  63.8410000
  65.9300000  43.5900000  60.7500000  65.1160000  42.9100000  62.9680000
  65.9040000  44.7000000  58.3670000  62.7150000  46.5820000  57.7590000
  64.4750000  46.0580000  56.9660000  61.2930000  43.4620000  65.8290000
  60.2830000  44.5890000  64.4830000  63.4970000  42.7110000  65.0650000
  65.6930000  45.3440000  57.1950000  66.7190000  44.2310000  58.5040000
  64.3370000  46.5030000  56.1380000  60.3090000  43.4790000  66.8660000
  62.5240000  42.7380000  66.0550000  64.2980000  42.2230000  65.2170000
  66.3600000  45.3200000  56.5190000  60.5200000  42.8360000  68.0380000
  59.4940000  43.9480000  66.7300000  62.6960000  42.0780000  67.3090000
  61.7380000  42.1210000  68.2680000  59.8540000  42.8590000  68.7150000
  63.4990000  41.5970000  67.4750000  61.8770000  41.6760000  69.0960000
  63.3890000  48.0680000  75.4490000  63.2180000  48.7450000  74.2250000
  62.4130000  48.0740000  76.4530000  64.6330000  47.3390000  75.6810000
  62.4170000  49.2330000  74.0730000  64.1910000  48.7180000  73.2350000
  61.5990000  48.5460000  76.3220000  62.5830000  47.3940000  77.6660000
  65.6170000  47.3340000  74.6620000  64.8030000  46.6590000  76.8940000
  65.4210000  47.9940000  73.4620000  64.0190000  49.3780000  71.9810000
  61.5990000  47.3980000  78.6850000  63.8280000  46.6640000  77.8980000
  66.4310000  46.8670000  74.8070000  65.6170000  46.1870000  77.0250000
  66.4060000  47.9770000  72.4240000  63.2160000  49.8590000  71.8150000
  64.9770000  49.3350000  71.0230000  61.7950000  46.7390000  79.8860000
  60.7850000  47.8660000  78.5400000  63.9980000  45.9880000  79.1220000
  66.1940000  48.6200000  71.2520000  67.2200000  47.5080000  72.5610000
  64.8380000  49.7800000  70.1950000  60.8100000  46.7560000  80.9230000
  63.0250000  46.0150000  80.1120000  64.7990000  45.5000000  79.2740000
  66.8610000  48.5970000  70.5760000  61.0220000  46.1120000  82.0950000
  59.9960000  47.2250000  80.7870000  63.1970000  45.3550000  81.3660000
  62.2400000  45.3980000  82.3240000  60.3550000  46.1360000  82.7710000
  64.0000000  44.8740000  81.5320000  62.3780000  44.9530000  83.1520000
  63.8900000  51.3450000  89.5060000  63.7190000  52.0220000  88.2820000
  62.9140000  51.3500000  90.5100000  65.1340000  50.6160000  89.7380000
  62.9180000  52.5100000  88.1300000  64.6920000  51.9950000  87.2920000
  62.1000000  51.8230000  90.3790000  63.0850000  50.6700000  91.7230000
  66.1180000  50.6110000  88.7190000  65.3050000  49.9360000  90.9510000
  65.9230000  51.2710000  87.5180000  64.5200000  52.6550000  86.0380000
  62.1000000  50.6750000  92.7420000  64.3290000  49.9410000  91.9550000
  66.9330000  50.1440000  88.8640000  66.1180000  49.4640000  91.0820000
  66.9070000  51.2540000  86.4810000  63.7180000  53.1360000  85.8720000
  65.4780000  52.6120000  85.0800000  62.2960000  50.0160000  93.9420000
  61.2860000  51.1430000  92.5970000  64.4990000  49.2640000  93.1790000
  66.6960000  51.8970000  85.3090000  67.7220000  50.7850000  86.6170000
  65.3390000  53.0570000  84.2520000  61.3120000  50.0330000  94.9800000
  63.5270000  49.2920000  94.1690000  65.3000000  48.7770000  93.3310000
  67.3620000  51.8740000  84.6320000  61.5230000  49.3890000  96.1520000
  60.4970000  50.5020000  94.8430000  63.6980000  48.6320000  95.4230000
  62.7410000  48.6750000  96.3810000  60.8560000  49.4130000  96.8280000
  64.5010000  48.1510000  95.5880000  62.8790000  48.2300000  97.2090000
  64.0310000  56.5930000  21.6710000  64.2010000  55.9160000  22.8950000
  65.0070000  56.5880000  20.6670000  62.7870000  57.3220000  21.4390000
  65.0020000  55.4290000  23.0470000  63.2290000  55.9430000  23.8850000
  65.8200000  56.1150000  20.7980000  64.8360000  57.2680000  19.4540000
  61.8020000  57.3270000  22.4580000  62.6160000  58.0020000  20.2260000
  61.9980000  56.6680000  23.6580000  63.4000000  55.2830000  25.1380000
  65.8200000  57.2630000  18.4350000  63.5920000  57.9970000  19.2220000
  60.9880000  57.7950000  22.3130000  61.8020000  58.4750000  20.0950000
  61.0140000  56.6840000  24.6960000  64.2030000  54.8020000  25.3040000
  62.4430000  55.3260000  26.0970000  65.6250000  57.9220000  17.2340000
  66.6350000  56.7950000  18.5800000  63.4210000  58.6740000  17.9980000
  61.2250000  56.0410000  25.8680000  60.1990000  57.1530000  24.5590000
  62.5810000  54.8810000  26.9250000  66.6090000  57.9050000  16.1970000
  64.3940000  58.6460000  17.0080000  62.6200000  59.1610000  17.8460000
  60.5580000  56.0640000  26.5440000  66.3980000  58.5490000  15.0250000
  67.4240000  57.4360000  16.3330000  64.2220000  59.3060000  15.7540000
  65.1800000  59.2630000  14.7950000  67.0640000  58.5260000  14.3480000
  63.4200000  59.7870000  15.5880000  65.0410000  59.7080000  13.9670000
  64.3280000  65.6760000  19.2220000  64.1580000  66.3520000  17.9980000
  63.3520000  65.6810000  20.2260000  65.5720000  64.9460000  19.4540000
  63.3560000  66.8400000  17.8460000  65.1300000  66.3250000  17.0080000
  62.5390000  66.1530000  20.0950000  63.5230000  65.0010000  21.4390000
  66.5560000  64.9410000  18.4350000  65.7430000  64.2660000  20.6670000
  66.3610000  65.6010000  17.2340000  64.9580000  66.9850000  15.7540000
  62.5380000  65.0050000  22.4580000  64.7670000  64.2710000  21.6710000
  67.3710000  64.4740000  18.5800000  66.5560000  63.7940000  20.7980000
  67.3450000  65.5840000  16.1970000  64.1560000  67.4660000  15.5880000
  65.9160000  66.9420000  14.7950000  62.7340000  64.3460000  23.6580000
  61.7240000  65.4730000  22.3130000  64.9370000  63.5950000  22.8950000
  67.1340000  66.2270000  15.0250000  68.1600000  65.1150000  16.3330000
  65.7780000  67.3870000  13.9670000  61.7500000  64.3630000  24.6960000
  63.9650000  63.6220000  23.8850000  65.7390000  63.1070000  23.0470000
  67.8000000  66.2040000  14.3480000  61.9610000  63.7200000  25.8680000
  60.9350000  64.8320000  24.5590000  64.1370000  62.9620000  25.1380000
  63.1790000  63.0050000  26.0970000  61.2950000  63.7430000  26.5440000
  64.9390000  62.4810000  25.3040000  63.3170000  62.5600000  26.9250000
  66.5060000  78.5040000  49.7840000  66.6760000  77.8270000  51.0090000
  67.4810000  78.4990000  48.7810000  65.2610000  79.2330000  49.5520000
  67.4770000  77.3390000  51.1600000  65.7030000  77.8540000  51.9980000
  68.2950000  78.0260000  48.9110000  67.3110000  79.1790000  47.5670000
  64.2770000  79.2380000  50.5710000  65.0910000  79.9130000  48.3390000
  64.4730000  78.5780000  51.7720000  65.8750000  77.1940000  53.2520000
  68.2950000  79.1740000  46.5480000  66.0670000  79.9080000  47.3360000
  63.4630000  79.7050000  50.4270000  64.2770000  80.3850000  48.2080000
  63.4890000  78.5950000  52.8090000  66.6780000  76.7130000  53.4180000
  64.9180000  77.2370000  54.2110000  68.0990000  79.8330000  45.3480000
  69.1090000  78.7060000  46.6930000  65.8960000  80.5850000  46.1110000
  63.7000000  77.9520000  53.9820000  62.6740000  79.0640000  52.6730000
  65.0560000  76.7920000  55.0390000  69.0840000  79.8160000  44.3110000
  66.8690000  80.5570000  45.1220000  65.0950000  81.0720000  45.9590000
  63.0330000  77.9750000  54.6580000  68.8730000  80.4600000  43.1380000
  69.8980000  79.3470000  44.4470000  66.6970000  81.2170000  43.8680000
  67.6550000  81.1740000  42.9090000  69.5390000  80.4360000  42.4620000
  65.8940000  81.6980000  43.7020000  67.5160000  81.6190000  42.0810000
  64.5630000  70.0770000   5.1650000  64.3920000  70.7540000   3.9410000
  63.5870000  70.0820000   6.1690000  65.8070000  69.3480000   5.3970000
  63.5910000  71.2420000   3.7890000  65.3650000  70.7270000   2.9510000
  62.7730000  70.5550000   6.0380000  63.7580000  69.4020000   7.3820000
  66.7910000  69.3430000   4.3780000  65.9780000  68.6680000   6.6100000
  66.5960000  70.0020000   3.1770000  65.1930000  71.3870000   1.6970000
  62.7730000  69.4070000   8.4010000  65.0020000  68.6730000   7.6140000
  67.6060000  68.8760000   4.5230000  66.7910000  68.1960000   6.7410000
  67.5800000  69.9860000   2.1400000  64.3910000  71.8680000   1.5310000
  66.1510000  71.3440000   0.7390000  62.9690000  68.7480000   9.6010000
  61.9590000  69.8750000   8.2560000  65.1720000  67.9960000   8.8380000
  67.3690000  70.6290000   0.9680000  68.3950000  69.5170000   2.2760000
  66.0120000  71.7890000  -0.0890000  61.9850000  68.7650000  10.6390000
  64.2000000  68.0240000   9.8280000  65.9730000  67.5090000   8.9900000
  68.0350000  70.6060000   0.2920000  62.1960000  68.1210000  11.8110000
  61.1700000  69.2340000  10.5020000  64.3710000  67.3640000  11.0820000
  63.4140000  67.4070000  12.0400000  61.5290000  68.1450000  12.4870000
  65.1740000  66.8830000  11.2470000  63.5520000  66.9620000  12.8680000
  67.2420000  86.1820000  49.7840000  67.4120000  85.5060000  51.0090000
  68.2170000  86.1770000  48.7810000  65.9980000  86.9110000  49.5520000
  68.2130000  85.0180000  51.1600000  66.4400000  85.5330000  51.9980000
  69.0310000  85.7050000  48.9110000  68.0470000  86.8570000  47.5670000
  65.0130000  86.9160000  50.5710000  65.8270000  87.5920000  48.3390000
  65.2090000  86.2570000  51.7720000  66.6110000  84.8730000  53.2520000
  69.0310000  86.8520000  46.5480000  66.8030000  87.5860000  47.3360000
  64.1990000  87.3840000  50.4270000  65.0130000  88.0640000  48.2080000
  64.2250000  86.2740000  52.8090000  67.4140000  84.3920000  53.4180000
  65.6540000  84.9160000  54.2110000  68.8360000  87.5120000  45.3480000
  69.8460000  86.3850000  46.6930000  66.6320000  88.2630000  46.1110000
  64.4360000  85.6300000  53.9820000  63.4100000  86.7430000  52.6730000
  65.7920000  84.4710000  55.0390000  69.8200000  87.4950000  44.3110000
  67.6050000  88.2360000  45.1220000  65.8310000  88.7510000  45.9590000
  63.7690000  85.6540000  54.6580000  69.6090000  88.1380000  43.1380000
  70.6350000  87.0260000  44.4470000  67.4330000  88.8960000  43.8680000
  68.3910000  88.8530000  42.9090000  70.2750000  88.1150000  42.4620000
  66.6300000  89.3770000  43.7020000  68.2520000  89.2980000  42.0810000
  67.3040000  90.8630000  61.3920000  67.1340000  91.5400000  60.1680000
  66.3280000  90.8680000  62.3960000  68.5480000  90.1340000  61.6240000
  66.3320000  92.0270000  60.0160000  68.1060000  91.5130000  59.1780000
  65.5150000  91.3410000  62.2650000  66.4990000  90.1880000  63.6090000
  69.5320000  90.1290000  60.6050000  68.7190000  89.4540000  62.8370000
  69.3370000  90.7880000  59.4050000  67.9340000  92.1730000  57.9250000
  65.5140000  90.1930000  64.6280000  67.7430000  89.4590000  63.8410000
  70.3470000  89.6620000  60.7500000  69.5320000  88.9810000  62.9680000
  70.3210000  90.7720000  58.3670000  67.1320000  92.6540000  57.7590000
  68.8920000  92.1300000  56.9660000  65.7100000  89.5340000  65.8290000
  64.7000000  90.6610000  64.4830000  67.9130000  88.7820000  65.0650000
  70.1100000  91.4150000  57.1950000  71.1360000  90.3030000  58.5040000
  68.7540000  92.5750000  56.1380000  64.7260000  89.5510000  66.8660000
  66.9410000  88.8100000  66.0550000  68.7150000  88.2950000  65.2170000
  70.7760000  91.3920000  56.5190000  64.9370000  88.9070000  68.0380000
  63.9110000  90.0200000  66.7300000  67.1130000  88.1500000  67.3090000
  66.1550000  88.1930000  68.2680000  64.2710000  88.9300000  68.7150000
  67.9150000  87.6690000  67.4750000  66.2930000  87.7480000  69.0960000
  67.8050000  94.1400000  75.4490000  67.6350000  94.8170000  74.2250000
  66.8300000  94.1450000  76.4530000  69.0490000  93.4110000  75.6810000
  66.8340000  95.3040000  74.0730000  68.6070000  94.7900000  73.2350000
  66.0160000  94.6180000  76.3220000  67.0000000  93.4650000  77.6660000
  70.0340000  93.4060000  74.6620000  69.2200000  92.7310000  76.8940000
  69.8380000  94.0650000  73.4620000  68.4360000  95.4490000  71.9810000
  66.0160000  93.4700000  78.6850000  68.2440000  92.7360000  77.8980000
  70.8480000  92.9380000  74.8070000  70.0340000  92.2580000  77.0250000
  70.8220000  94.0480000  72.4240000  67.6330000  95.9310000  71.8150000
  69.3930000  95.4060000  71.0230000  66.2110000  92.8110000  79.8860000
  65.2010000  93.9380000  78.5400000  68.4150000  92.0590000  79.1220000
  70.6110000  94.6920000  71.2520000  71.6370000  93.5800000  72.5610000
  69.2550000  95.8510000  70.1950000  65.2270000  92.8280000  80.9230000
  67.4420000  92.0860000  80.1120000  69.2160000  91.5720000  79.2740000
  71.2780000  94.6690000  70.5760000  65.4380000  92.1840000  82.0950000
  64.4120000  93.2960000  80.7870000  67.6140000  91.4270000  81.3660000
  66.6560000  91.4700000  82.3240000  64.7720000  92.2070000  82.7710000
  68.4170000  90.9450000  81.5320000  66.7950000  91.0250000  83.1520000
  65.7380000  76.3520000   7.6140000  65.9080000  75.6750000   8.8380000
  66.7140000  76.3470000   6.6100000  64.4940000  77.0810000   7.3820000
  66.7100000  75.1880000   8.9900000  64.9360000  75.7020000   9.8280000
  67.5270000  75.8740000   6.7410000  66.5430000  77.0270000   5.3970000
  63.5090000  77.0860000   8.4010000  64.3230000  77.7610000   6.1690000
  63.7050000  76.4270000   9.6010000  65.1080000  75.0420000  11.0820000
  67.5270000  77.0220000   4.3780000  65.2990000  77.7560000   5.1650000
  62.6950000  77.5540000   8.2560000  63.5100000  78.2340000   6.0380000
  62.7210000  76.4430000  10.6390000  65.9100000  74.5610000  11.2470000
  64.1500000  75.0850000  12.0400000  67.3320000  77.6810000   3.1770000
  68.3420000  76.5540000   4.5230000  65.1290000  78.4330000   3.9410000
  62.9320000  75.8000000  11.8110000  61.9060000  76.9120000  10.5020000
  64.2880000  74.6400000  12.8680000  68.3160000  77.6640000   2.1400000
  66.1010000  78.4050000   2.9510000  64.3270000  78.9200000   3.7890000
  62.2660000  75.8230000  12.4870000  68.1050000  78.3080000   0.9680000
  69.1310000  77.1950000   2.2760000  65.9290000  79.0650000   1.6970000
  66.8870000  79.0220000   0.7390000  68.7710000  78.2850000   0.2920000
  65.1270000  79.5460000   1.5310000  66.7490000  79.4670000  -0.0890000
  68.7450000  96.0130000  91.9550000  68.9160000  95.3360000  93.1790000
  69.7210000  96.0080000  90.9510000  67.5010000  96.7420000  91.7230000
  69.7170000  94.8490000  93.3310000  67.9430000  95.3630000  94.1690000
  70.5350000  95.5350000  91.0820000  69.5510000  96.6880000  89.7380000
  66.5170000  96.7470000  92.7420000  67.3310000  97.4220000  90.5100000
  66.7130000  96.0880000  93.9420000  68.1150000  94.7030000  95.4230000
  70.5350000  96.6830000  88.7190000  68.3070000  97.4170000  89.5060000
  65.7030000  97.2140000  92.5970000  66.5170000  97.8950000  90.3790000
  65.7280000  96.1040000  94.9800000  68.9180000  94.2220000  95.5880000
  67.1570000  94.7460000  96.3810000  70.3390000  97.3420000  87.5180000
  71.3490000  96.2150000  88.8640000  68.1360000  98.0940000  88.2820000
  65.9400000  95.4610000  96.1520000  64.9140000  96.5730000  94.8430000
  67.2960000  94.3010000  97.2090000  71.3240000  97.3250000  86.4810000
  69.1090000  98.0660000  87.2920000  67.3350000  98.5810000  88.1300000
  65.2730000  95.4840000  96.8280000  71.1120000  97.9690000  85.3090000
  72.1380000  96.8560000  86.6170000  68.9370000  98.7260000  86.0380000
  69.8950000  98.6830000  85.0800000  71.7790000  97.9460000  84.6320000
  68.1340000  99.2070000  85.8720000  69.7560000  99.1280000  84.2520000
  61.1180000  20.3520000  63.8410000  61.2880000  19.6750000  65.0650000
  62.0940000  20.3470000  62.8370000  59.8740000  21.0810000  63.6090000
  62.0900000  19.1880000  65.2170000  60.3160000  19.7020000  66.0550000
  62.9070000  19.8740000  62.9680000  61.9230000  21.0270000  61.6240000
  58.8890000  21.0860000  64.6280000  59.7030000  21.7610000  62.3960000
  59.0850000  20.4270000  65.8290000  60.4880000  19.0420000  67.3090000
  62.9070000  21.0220000  60.6050000  60.6790000  21.7560000  61.3920000
  58.0750000  21.5530000  64.4830000  58.8900000  22.2330000  62.2650000
  58.1010000  20.4430000  66.8660000  61.2900000  18.5610000  67.4750000
  59.5300000  19.0850000  68.2680000  62.7120000  21.6810000  59.4050000
  63.7220000  20.5540000  60.7500000  60.5090000  22.4330000  60.1680000
  58.3120000  19.8000000  68.0380000  57.2860000  20.9120000  66.7300000
  59.6680000  18.6400000  69.0960000  63.6960000  21.6640000  58.3670000
  61.4810000  22.4050000  59.1780000  59.7070000  22.9200000  60.0160000
  57.6460000  19.8230000  68.7150000  63.4850000  22.3080000  57.1950000
  64.5110000  21.1950000  58.5040000  61.3090000  23.0650000  57.9250000
  62.2670000  23.0220000  56.9660000  64.1510000  22.2840000  56.5190000
  60.5070000  23.5460000  57.7590000  62.1290000  23.4670000  56.1380000
  61.1800000  25.0330000  75.4490000  61.0100000  25.7090000  74.2250000
  60.2040000  25.0380000  76.4530000  62.4240000  24.3040000  75.6810000
  60.2090000  26.1970000  74.0730000  61.9820000  25.6820000  73.2350000
  59.3910000  25.5100000  76.3220000  60.3750000  24.3580000  77.6660000
  63.4090000  24.2990000  74.6620000  62.5950000  23.6230000  76.8940000
  63.2130000  24.9580000  73.4620000  61.8110000  26.3420000  71.9810000
  59.3910000  24.3630000  78.6850000  61.6190000  23.6290000  77.8980000
  64.2230000  23.8310000  74.8070000  63.4090000  23.1510000  77.0250000
  64.1970000  24.9410000  72.4240000  61.0080000  26.8230000  71.8150000
  62.7680000  26.2990000  71.0230000  59.5860000  23.7030000  79.8860000
  58.5760000  24.8300000  78.5400000  61.7900000  22.9520000  79.1220000
  63.9860000  25.5850000  71.2520000  65.0120000  24.4720000  72.5610000
  62.6300000  26.7440000  70.1950000  58.6020000  23.7200000  80.9230000
  60.8170000  22.9790000  80.1120000  62.5910000  22.4640000  79.2740000
  64.6530000  25.5610000  70.5760000  58.8130000  23.0770000  82.0950000
  57.7870000  24.1890000  80.7870000  60.9890000  22.3190000  81.3660000
  60.0310000  22.3620000  82.3240000  58.1470000  23.1000000  82.7710000
  61.7910000  21.8380000  81.5320000  60.1700000  21.9170000  83.1520000
  59.8490000  14.9230000   7.6140000  60.0190000  14.2460000   8.8380000
  60.8250000  14.9180000   6.6100000  58.6050000  15.6520000   7.3820000
  60.8210000  13.7590000   8.9900000  59.0470000  14.2740000   9.8280000
  61.6380000  14.4450000   6.7410000  60.6540000  15.5980000   5.3970000
  57.6200000  15.6570000   8.4010000  58.4340000  16.3320000   6.1690000
  57.8160000  14.9980000   9.6010000  59.2190000  13.6140000  11.0820000
  61.6380000  15.5930000   4.3780000  59.4100000  16.3270000   5.1650000
  56.8060000  16.1250000   8.2560000  57.6210000  16.8050000   6.0380000
  56.8320000  15.0150000  10.6390000  60.0210000  13.1320000  11.2470000
  58.2610000  13.6570000  12.0400000  61.4430000  16.2520000   3.1770000
  62.4530000  15.1250000   4.5230000  59.2400000  17.0040000   3.9410000
  57.0430000  14.3710000  11.8110000  56.0170000  15.4840000  10.5020000
  58.3990000  13.2120000  12.8680000  62.4270000  16.2350000   2.1400000
  60.2120000  16.9770000   2.9510000  58.4380000  17.4910000   3.7890000
  56.3770000  14.3940000  12.4870000  62.2160000  16.8790000   0.9680000
  63.2420000  15.7670000   2.2760000  60.0400000  17.6360000   1.6970000
  60.9980000  17.5930000   0.7390000  62.8820000  16.8560000   0.2920000
  59.2380000  18.1180000   1.5310000  60.8600000  18.0390000  -0.0890000
  64.1250000  55.7470000  75.4490000  63.9540000  56.4240000  74.2250000
  63.1490000  55.7520000  76.4530000  65.3690000  55.0180000  75.6810000
  63.1530000  56.9110000  74.0730000  64.9270000  56.3970000  73.2350000
  62.3350000  56.2250000  76.3220000  63.3200000  55.0720000  77.6660000
  66.3530000  55.0130000  74.6620000  65.5390000  54.3380000  76.8940000
  66.1580000  55.6720000  73.4620000  64.7550000  57.0560000  71.9810000
  62.3350000  55.0770000  78.6850000  64.5640000  54.3430000  77.8980000
  67.1670000  54.5450000  74.8070000  66.3530000  53.8650000  77.0250000
  67.1420000  55.6550000  72.4240000  63.9520000  57.5380000  71.8150000
  65.7130000  57.0130000  71.0230000  62.5310000  54.4180000  79.8860000
  61.5210000  55.5450000  78.5400000  64.7340000  53.6660000  79.1220000
  66.9310000  56.2990000  71.2520000  67.9560000  55.1870000  72.5610000
  65.5740000  57.4580000  70.1950000  61.5470000  54.4350000  80.9230000
  63.7610000  53.6930000  80.1120000  65.5350000  53.1790000  79.2740000
  67.5970000  56.2760000  70.5760000  61.7580000  53.7910000  82.0950000
  60.7320000  54.9030000  80.7870000  63.9330000  53.0340000  81.3660000
  62.9760000  53.0770000  82.3240000  61.0910000  53.8140000  82.7710000
  64.7360000  52.5520000  81.5320000  63.1140000  52.6320000  83.1520000
  64.6260000  59.0240000  89.5060000  64.4560000  59.7010000  88.2820000
  63.6500000  59.0290000  90.5100000  65.8700000  58.2950000  89.7380000
  63.6540000  60.1880000  88.1300000  65.4280000  59.6730000  87.2920000
  62.8370000  59.5020000  90.3790000  63.8210000  58.3490000  91.7230000
  66.8540000  58.2900000  88.7190000  66.0410000  57.6150000  90.9510000
  66.6590000  58.9490000  87.5180000  65.2560000  60.3330000  86.0380000
  62.8360000  58.3540000  92.7420000  65.0650000  57.6200000  91.9550000
  67.6690000  57.8220000  88.8640000  66.8540000  57.1420000  91.0820000
  67.6430000  58.9320000  86.4810000  64.4540000  60.8140000  85.8720000
  66.2140000  60.2900000  85.0800000  63.0320000  57.6950000  93.9420000
  62.0220000  58.8220000  92.5970000  65.2350000  56.9430000  93.1790000
  67.4320000  59.5760000  85.3090000  68.4580000  58.4630000  86.6170000
  66.0760000  60.7350000  84.2520000  62.0480000  57.7110000  94.9800000
  64.2630000  56.9700000  94.1690000  66.0370000  56.4560000  93.3310000
  68.0980000  59.5530000  84.6320000  62.2590000  57.0680000  96.1520000
  61.2330000  58.1800000  94.8430000  64.4350000  56.3100000  95.4230000
  63.4770000  56.3530000  96.3810000  61.5930000  57.0910000  96.8280000
  65.2370000  55.8290000  95.5880000  63.6150000  55.9080000  97.2090000
  64.0620000  51.0660000  63.8410000  64.2330000  50.3890000  65.0650000
  65.0380000  51.0610000  62.8370000  62.8180000  51.7950000  63.6090000
  65.0340000  49.9020000  65.2170000  63.2600000  50.4170000  66.0550000
  65.8520000  50.5890000  62.9680000  64.8680000  51.7410000  61.6240000
  61.8340000  51.8000000  64.6280000  62.6480000  52.4750000  62.3960000
  62.0300000  51.1410000  65.8290000  63.4320000  49.7570000  67.3090000
  65.8520000  51.7360000  60.6050000  63.6230000  52.4700000  61.3920000
  61.0200000  52.2680000  64.4830000  61.8340000  52.9480000  62.2650000
  61.0450000  51.1580000  66.8660000  64.2350000  49.2760000  67.4750000
  62.4740000  49.8000000  68.2680000  65.6560000  52.3950000  59.4050000
  66.6660000  51.2690000  60.7500000  63.4530000  53.1470000  60.1680000
  61.2570000  50.5140000  68.0380000  60.2310000  51.6270000  66.7300000
  62.6130000  49.3550000  69.0960000  66.6400000  52.3790000  58.3670000
  64.4260000  53.1200000  59.1780000  62.6520000  53.6340000  60.0160000
  60.5900000  50.5370000  68.7150000  66.4290000  53.0220000  57.1950000
  67.4550000  51.9100000  58.5040000  64.2540000  53.7800000  57.9250000
  65.2110000  53.7370000  56.9660000  67.0960000  52.9990000  56.5190000
  63.4510000  54.2610000  57.7590000  65.0730000  54.1820000  56.1380000
  64.7980000  58.7450000  63.8410000  64.9690000  58.0680000  65.0650000
  65.7740000  58.7400000  62.8370000  63.5540000  59.4740000  63.6090000
  65.7700000  57.5800000  65.2170000  63.9960000  58.0950000  66.0550000
  66.5880000  58.2670000  62.9680000  65.6040000  59.4200000  61.6240000
  62.5700000  59.4790000  64.6280000  63.3840000  60.1540000  62.3960000
  62.7660000  58.8200000  65.8290000  64.1680000  57.4350000  67.3090000
  66.5880000  59.4150000  60.6050000  64.3600000  60.1490000  61.3920000
  61.7560000  59.9460000  64.4830000  62.5700000  60.6260000  62.2650000
  61.7810000  58.8360000  66.8660000  64.9710000  56.9540000  67.4750000
  63.2100000  57.4780000  68.2680000  66.3920000  60.0740000  59.4050000
  67.4020000  58.9470000  60.7500000  64.1890000  60.8260000  60.1680000
  61.9930000  58.1930000  68.0380000  60.9670000  59.3050000  66.7300000
  63.3490000  57.0330000  69.0960000  67.3770000  60.0570000  58.3670000
  65.1620000  60.7980000  59.1780000  63.3880000  61.3130000  60.0160000
  61.3260000  58.2160000  68.7150000  67.1650000  60.7010000  57.1950000
  68.1910000  59.5880000  58.5040000  64.9900000  61.4580000  57.9250000
  65.9480000  61.4150000  56.9660000  67.8320000  60.6770000  56.5190000
  64.1870000  61.9390000  57.7590000  65.8090000  61.8600000  56.1380000
  64.8610000  63.4260000  75.4490000  64.6900000  64.1020000  74.2250000
  63.8850000  63.4310000  76.4530000  66.1050000  62.6970000  75.6810000
  63.8890000  64.5900000  74.0730000  65.6630000  64.0750000  73.2350000
  63.0710000  63.9030000  76.3220000  64.0560000  62.7510000  77.6660000
  67.0890000  62.6920000  74.6620000  66.2760000  62.0160000  76.8940000
  66.8940000  63.3510000  73.4620000  65.4910000  64.7350000  71.9810000
  63.0710000  62.7560000  78.6850000  65.3000000  62.0220000  77.8980000
  67.9040000  62.2240000  74.8070000  67.0890000  61.5440000  77.0250000
  67.8780000  63.3340000  72.4240000  64.6890000  65.2160000  71.8150000
  66.4490000  64.6920000  71.0230000  63.2670000  62.0960000  79.8860000
  62.2570000  63.2230000  78.5400000  65.4700000  61.3450000  79.1220000
  67.6670000  63.9780000  71.2520000  68.6930000  62.8650000  72.5610000
  66.3100000  65.1370000  70.1950000  62.2830000  62.1130000  80.9230000
  64.4980000  61.3720000  80.1120000  66.2710000  60.8570000  79.2740000
  68.3330000  63.9540000  70.5760000  62.4940000  61.4700000  82.0950000
  61.4680000  62.5820000  80.7870000  64.6690000  60.7120000  81.3660000
  63.7120000  60.7550000  82.3240000  61.8270000  61.4930000  82.7710000
  65.4720000  60.2310000  81.5320000  63.8500000  60.3100000  83.1520000
  65.8010000  65.2980000  91.9550000  65.9710000  64.6220000  93.1790000
  66.7770000  65.2930000  90.9510000  64.5570000  66.0280000  91.7230000
  66.7730000  64.1340000  93.3310000  64.9990000  64.6490000  94.1690000
  67.5900000  64.8210000  91.0820000  66.6060000  65.9730000  89.7380000
  63.5730000  66.0320000  92.7420000  64.3860000  66.7080000  90.5100000
  63.7680000  65.3730000  93.9420000  65.1710000  63.9890000  95.4230000
  67.5910000  65.9680000  88.7190000  65.3620000  66.7030000  89.5060000
  62.7580000  66.5000000  92.5970000  63.5730000  67.1800000  90.3790000
  62.7840000  65.3900000  94.9800000  65.9730000  63.5080000  95.5880000
  64.2130000  64.0320000  96.3810000  67.3950000  66.6280000  87.5180000
  68.4050000  65.5010000  88.8640000  65.1920000  67.3790000  88.2820000
  62.9950000  64.7470000  96.1520000  61.9690000  65.8590000  94.8430000
  64.3510000  63.5870000  97.2090000  68.3790000  66.6110000  86.4810000
  66.1640000  67.3520000  87.2920000  64.3900000  67.8670000  88.1300000
  62.3290000  64.7700000  96.8280000  68.1680000  67.2540000  85.3090000
  69.1940000  66.1420000  86.6170000  65.9920000  68.0120000  86.0380000
  66.9500000  67.9690000  85.0800000  68.8340000  67.2310000  84.6320000
  65.1900000  68.4930000  85.8720000  66.8120000  68.4140000  84.2520000
  65.5350000  66.4230000  63.8410000  65.7050000  65.7470000  65.0650000
  66.5100000  66.4180000  62.8370000  64.2910000  67.1520000  63.6090000
  66.5060000  65.2590000  65.2170000  64.7320000  65.7740000  66.0550000
  67.3240000  65.9460000  62.9680000  66.3400000  67.0980000  61.6240000
  63.3060000  67.1570000  64.6280000  64.1200000  67.8330000  62.3960000
  63.5020000  66.4980000  65.8290000  64.9040000  65.1140000  67.3090000
  67.3240000  67.0930000  60.6050000  65.0960000  67.8270000  61.3920000
  62.4920000  67.6250000  64.4830000  63.3060000  68.3050000  62.2650000
  62.5180000  66.5150000  66.8660000  65.7070000  64.6330000  67.4750000
  63.9470000  65.1570000  68.2680000  67.1290000  67.7530000  59.4050000
  68.1380000  66.6260000  60.7500000  64.9250000  68.5040000  60.1680000
  62.7290000  65.8710000  68.0380000  61.7030000  66.9840000  66.7300000
  64.0850000  64.7120000  69.0960000  68.1130000  67.7360000  58.3670000
  65.8980000  68.4770000  59.1780000  64.1240000  68.9920000  60.0160000
  62.0620000  65.8950000  68.7150000  67.9020000  68.3790000  57.1950000
  68.9270000  67.2670000  58.5040000  65.7260000  69.1370000  57.9250000
  66.6840000  69.0940000  56.9660000  68.5680000  68.3560000  56.5190000
  64.9230000  69.6180000  57.7590000  66.5450000  69.5390000  56.1380000
  65.5970000  71.1040000  75.4490000  65.4270000  71.7810000  74.2250000
  64.6210000  71.1090000  76.4530000  66.8410000  70.3750000  75.6810000
  64.6250000  72.2690000  74.0730000  66.3990000  71.7540000  73.2350000
  63.8080000  71.5820000  76.3220000  64.7920000  70.4290000  77.6660000
  67.8250000  70.3700000  74.6620000  67.0120000  69.6950000  76.8940000
  67.6300000  71.0290000  73.4620000  66.2270000  72.4140000  71.9810000
  63.8070000  70.4340000  78.6850000  66.0360000  69.7000000  77.8980000
  68.6400000  69.9030000  74.8070000  67.8250000  69.2230000  77.0250000
  68.6140000  71.0130000  72.4240000  65.4250000  72.8950000  71.8150000
  67.1850000  72.3710000  71.0230000  64.0030000  69.7750000  79.8860000
  62.9930000  70.9020000  78.5400000  66.2060000  69.0230000  79.1220000
  68.4030000  71.6560000  71.2520000  69.4290000  70.5440000  72.5610000
  67.0470000  72.8160000  70.1950000  63.0190000  69.7920000  80.9230000
  65.2340000  69.0510000  80.1120000  67.0070000  68.5360000  79.2740000
  69.0690000  71.6330000  70.5760000  63.2300000  69.1480000  82.0950000
  62.2040000  70.2610000  80.7870000  65.4060000  68.3910000  81.3660000
  64.4480000  68.4340000  82.3240000  62.5630000  69.1720000  82.7710000
  66.2080000  67.9100000  81.5320000  64.5860000  67.9890000  83.1520000
  66.0980000  74.3810000  89.5060000  65.9280000  75.0580000  88.2820000
  65.1220000  74.3860000  90.5100000  67.3420000  73.6520000  89.7380000
  65.1270000  75.5450000  88.1300000  66.9000000  75.0310000  87.2920000
  64.3090000  74.8590000  90.3790000  65.2930000  73.7060000  91.7230000
  68.3270000  73.6470000  88.7190000  67.5130000  72.9720000  90.9510000
  68.1310000  74.3060000  87.5180000  66.7290000  75.6900000  86.0380000
  64.3090000  73.7110000  92.7420000  66.5370000  72.9770000  91.9550000
  69.1410000  73.1790000  88.8640000  68.3270000  72.4990000  91.0820000
  69.1150000  74.2890000  86.4810000  65.9260000  76.1720000  85.8720000
  67.6860000  75.6470000  85.0800000  64.5040000  73.0520000  93.9420000
  63.4940000  74.1790000  92.5970000  66.7080000  72.3000000  93.1790000
  68.9040000  74.9330000  85.3090000  69.9300000  73.8210000  86.6170000
  67.5480000  76.0930000  84.2520000  63.5200000  73.0690000  94.9800000
  65.7350000  72.3270000  94.1690000  67.5090000  71.8130000  93.3310000
  69.5710000  74.9100000  84.6320000  63.7310000  72.4250000  96.1520000
  62.7050000  73.5380000  94.8430000  65.9070000  71.6680000  95.4230000
  64.9490000  71.7110000  96.3810000  63.0650000  72.4480000  96.8280000
  66.7090000  71.1860000  95.5880000  65.0880000  71.2660000  97.2090000
  65.3310000  72.2290000  47.3360000  65.1600000  72.9060000  46.1110000
  64.3550000  72.2340000  48.3390000  66.5750000  71.5000000  47.5670000
  64.3590000  73.3930000  45.9590000  66.1330000  72.8790000  45.1220000
  63.5410000  72.7070000  48.2080000  64.5250000  71.5540000  49.5520000
  67.5590000  71.4950000  46.5480000  66.7450000  70.8200000  48.7810000
  67.3630000  72.1540000  45.3480000  65.9610000  73.5390000  43.8680000
  63.5410000  71.5590000  50.5710000  65.7690000  70.8250000  49.7840000
  68.3730000  71.0270000  46.6930000  67.5590000  70.3470000  48.9110000
  68.3480000  72.1380000  44.3110000  65.1580000  74.0200000  43.7020000
  66.9190000  73.4960000  42.9090000  63.7370000  70.9000000  51.7720000
  62.7270000  72.0270000  50.4270000  65.9400000  70.1480000  51.0090000
  68.1360000  72.7810000  43.1380000  69.1620000  71.6690000  44.4470000
  66.7800000  73.9410000  42.0810000  62.7520000  70.9170000  52.8090000
  64.9670000  70.1760000  51.9980000  66.7410000  69.6610000  51.1600000
  68.8030000  72.7580000  42.4620000  62.9640000  70.2730000  53.9820000
  61.9380000  71.3860000  52.6730000  65.1390000  69.5160000  53.2520000
  64.1810000  69.5590000  54.2110000  62.2970000  70.2960000  54.6580000
  65.9420000  69.0350000  53.4180000  64.3200000  69.1140000  55.0390000
  67.2730000  80.6560000  91.9550000  67.4440000  79.9790000  93.1790000
  68.2490000  80.6500000  90.9510000  66.0290000  81.3850000  91.7230000
  68.2450000  79.4910000  93.3310000  66.4710000  80.0060000  94.1690000
  69.0630000  80.1780000  91.0820000  68.0780000  81.3310000  89.7380000
  65.0450000  81.3900000  92.7420000  65.8590000  82.0650000  90.5100000
  65.2400000  80.7300000  93.9420000  66.6430000  79.3460000  95.4230000
  69.0630000  81.3260000  88.7190000  66.8340000  82.0600000  89.5060000
  64.2300000  81.8570000  92.5970000  65.0450000  82.5370000  90.3790000
  64.2560000  80.7470000  94.9800000  67.4460000  78.8650000  95.5880000
  65.6850000  79.3890000  96.3810000  68.8670000  81.9850000  87.5180000
  69.8770000  80.8580000  88.8640000  66.6640000  82.7360000  88.2820000
  64.4670000  80.1040000  96.1520000  63.4410000  81.2160000  94.8430000
  65.8240000  78.9440000  97.2090000  69.8510000  81.9680000  86.4810000
  67.6360000  82.7090000  87.2920000  65.8630000  83.2240000  88.1300000
  63.8010000  80.1270000  96.8280000  69.6400000  82.6120000  85.3090000
  70.6660000  81.4990000  86.6170000  67.4650000  83.3690000  86.0380000
  68.4220000  83.3260000  85.0800000  70.3070000  82.5880000  84.6320000
  66.6620000  83.8500000  85.8720000  68.2840000  83.7710000  84.2520000
  66.3330000  78.7830000  75.4490000  66.1630000  79.4600000  74.2250000
  65.3570000  78.7880000  76.4530000  67.5770000  78.0540000  75.6810000
  65.3610000  79.9470000  74.0730000  67.1350000  79.4320000  73.2350000
  64.5440000  79.2600000  76.3220000  65.5280000  78.1080000  77.6660000
  68.5620000  78.0490000  74.6620000  67.7480000  77.3740000  76.8940000
  68.3660000  78.7080000  73.4620000  66.9630000  80.0920000  71.9810000
  64.5440000  78.1130000  78.6850000  66.7720000  77.3790000  77.8980000
  69.3760000  77.5810000  74.8070000  68.5610000  76.9010000  77.0250000
  69.3500000  78.6910000  72.4240000  66.1610000  80.5730000  71.8150000
  67.9210000  80.0490000  71.0230000  64.7390000  77.4540000  79.8860000
  63.7290000  78.5800000  78.5400000  66.9420000  76.7020000  79.1220000
  69.1390000  79.3350000  71.2520000  70.1650000  78.2220000  72.5610000
  67.7830000  80.4940000  70.1950000  63.7550000  77.4700000  80.9230000
  65.9700000  76.7290000  80.1120000  67.7440000  76.2150000  79.2740000
  69.8050000  79.3120000  70.5760000  63.9660000  76.8270000  82.0950000
  62.9400000  77.9390000  80.7870000  66.1420000  76.0690000  81.3660000
  65.1840000  76.1120000  82.3240000  63.3000000  76.8500000  82.7710000
  66.9440000  75.5880000  81.5320000  65.3220000  75.6670000  83.1520000
  67.5700000  89.7380000  89.5060000  67.4000000  90.4150000  88.2820000
  66.5950000  89.7430000  90.5100000  68.8150000  89.0090000  89.7380000
  66.5990000  90.9030000  88.1300000  68.3730000  90.3880000  87.2920000
  65.7810000  90.2160000  90.3790000  66.7650000  89.0630000  91.7230000
  69.7990000  89.0040000  88.7190000  68.9850000  88.3290000  90.9510000
  69.6030000  89.6630000  87.5180000  68.2010000  91.0480000  86.0380000
  65.7810000  89.0680000  92.7420000  68.0090000  88.3340000  91.9550000
  70.6130000  88.5370000  88.8640000  69.7990000  87.8570000  91.0820000
  70.5870000  89.6470000  86.4810000  67.3980000  91.5290000  85.8720000
  69.1580000  91.0050000  85.0800000  65.9770000  88.4090000  93.9420000
  64.9670000  89.5360000  92.5970000  68.1800000  87.6570000  93.1790000
  70.3760000  90.2900000  85.3090000  71.4020000  89.1780000  86.6170000
  69.0200000  91.4500000  84.2520000  64.9920000  88.4260000  94.9800000
  67.2070000  87.6850000  94.1690000  68.9810000  87.1700000  93.3310000
  71.0430000  90.2670000  84.6320000  65.2040000  87.7820000  96.1520000
  64.1780000  88.8950000  94.8430000  67.3790000  87.0250000  95.4230000
  66.4210000  87.0680000  96.3810000  64.5370000  87.8060000  96.8280000
  68.1820000  86.5440000  95.5880000  66.5600000  86.6230000  97.2090000
  66.5360000  88.7110000  19.2220000  66.3660000  89.3880000  17.9980000
  65.5610000  88.7160000  20.2260000  67.7800000  87.9820000  19.4540000
  65.5650000  89.8760000  17.8460000  67.3390000  89.3610000  17.0080000
  64.7470000  89.1890000  20.0950000  65.7310000  88.0360000  21.4390000
  68.7650000  87.9770000  18.4350000  67.9510000  87.3020000  20.6670000
  68.5690000  88.6370000  17.2340000  67.1670000  90.0210000  15.7540000
  64.7470000  88.0410000  22.4580000  66.9750000  87.3070000  21.6710000
  69.5790000  87.5100000  18.5800000  68.7650000  86.8300000  20.7980000
  69.5530000  88.6200000  16.1970000  66.3640000  90.5020000  15.5880000
  68.1240000  89.9780000  14.7950000  64.9420000  87.3820000  23.6580000
  63.9330000  88.5090000  22.3130000  67.1460000  86.6300000  22.8950000
  69.3420000  89.2630000  15.0250000  70.3680000  88.1510000  16.3330000
  67.9860000  90.4230000  13.9670000  63.9580000  87.3990000  24.6960000
  66.1730000  86.6580000  23.8850000  67.9470000  86.1430000  23.0470000
  70.0090000  89.2400000  14.3480000  64.1690000  86.7550000  25.8680000
  63.1440000  87.8680000  24.5590000  66.3450000  85.9980000  25.1380000
  65.3870000  86.0410000  26.0970000  63.5030000  86.7790000  26.5440000
  67.1480000  85.5170000  25.3040000  65.5260000  85.5960000  26.9250000
  68.9800000 100.4150000  77.8980000  69.1510000  99.7380000  79.1220000
  69.9560000 100.4090000  76.8940000  67.7360000 101.1440000  77.6660000
  69.9520000  99.2500000  79.2740000  68.1780000  99.7650000  80.1120000
  70.7700000  99.9370000  77.0250000  69.7860000 101.0900000  75.6810000
  66.7520000 101.1490000  78.6850000  67.5660000 101.8240000  76.4530000
  66.9480000 100.4890000  79.8860000  68.3500000  99.1050000  81.3660000
  70.7700000 101.0850000  74.6620000  68.5410000 101.8190000  75.4490000
  65.9380000 101.6160000  78.5400000  66.7520000 102.2960000  76.3220000
  65.9630000 100.5060000  80.9230000  69.1530000  98.6240000  81.5320000
  67.3920000  99.1480000  82.3240000  70.5740000 101.7440000  73.4620000
  71.5840000 100.6170000  74.8070000  68.3710000 102.4950000  74.2250000
  66.1740000  99.8630000  82.0950000  65.1490000 100.9750000  80.7870000
  67.5310000  98.7030000  83.1520000  71.5580000 101.7270000  72.4240000
  69.3440000 102.4680000  73.2350000  67.5700000 102.9830000  74.0730000
  65.5080000  99.8860000  82.7710000  71.3470000 102.3710000  71.2520000
  72.3730000 101.2580000  72.5610000  69.1720000 103.1280000  71.9810000
  70.1290000 103.0850000  71.0230000  72.0140000 102.3470000  70.5760000
  68.3690000 103.6090000  71.8150000  69.9910000 103.5300000  70.1950000
  67.4770000  90.5840000  35.7270000  67.6470000  89.9070000  36.9520000
  68.4520000  90.5790000  34.7240000  66.2320000  91.3130000  35.4960000
  68.4480000  89.4200000  37.1040000  66.6740000  89.9350000  37.9410000
  69.2660000  90.1060000  34.8550000  68.2820000  91.2590000  33.5110000
  65.2480000  91.3180000  36.5150000  66.0620000  91.9930000  34.2820000
  65.4440000  90.6590000  37.7150000  66.8460000  89.2750000  39.1950000
  69.2660000  91.2540000  32.4920000  67.0380000  91.9880000  33.2790000
  64.4340000  91.7860000  36.3700000  65.2480000  92.4660000  34.1520000
  64.4590000  90.6760000  38.7520000  67.6490000  88.7940000  39.3610000
  65.8890000  89.3180000  40.1540000  69.0700000  91.9130000  31.2910000
  70.0800000  90.7860000  32.6360000  66.8670000  92.6650000  32.0540000
  64.6710000  90.0320000  39.9250000  63.6450000  91.1450000  38.6160000
  66.0270000  88.8730000  40.9820000  70.0550000  91.8960000  30.2540000
  67.8400000  92.6380000  31.0650000  66.0660000  93.1520000  31.9030000
  64.0040000  90.0550000  40.6010000  69.8430000  92.5400000  29.0810000
  70.8690000  91.4280000  30.3900000  67.6680000  93.2980000  29.8110000
  68.6260000  93.2540000  28.8520000  70.5100000  92.5170000  28.4050000
  66.8650000  93.7790000  29.6450000  68.4870000  93.7000000  28.0240000
  67.9780000  93.8610000  49.7840000  68.1480000  93.1840000  51.0090000
  68.9540000  93.8560000  48.7810000  66.7340000  94.5900000  49.5520000
  68.9490000  92.6970000  51.1600000  67.1760000  93.2110000  51.9980000
  69.7670000  93.3830000  48.9110000  68.7830000  94.5360000  47.5670000
  65.7490000  94.5950000  50.5710000  66.5630000  95.2700000  48.3390000
  65.9450000  93.9360000  51.7720000  67.3470000  92.5520000  53.2520000
  69.7670000  94.5310000  46.5480000  67.5390000  95.2650000  47.3360000
  64.9350000  95.0630000  50.4270000  65.7490000  95.7430000  48.2080000
  64.9610000  93.9530000  52.8090000  68.1500000  92.0700000  53.4180000
  66.3900000  92.5950000  54.2110000  69.5720000  95.1900000  45.3480000
  70.5820000  94.0630000  46.6930000  67.3680000  95.9420000  46.1110000
  65.1720000  93.3090000  53.9820000  64.1460000  94.4210000  52.6730000
  66.5280000  92.1490000  55.0390000  70.5560000  95.1730000  44.3110000
  68.3410000  95.9140000  45.1220000  66.5670000  96.4290000  45.9590000
  64.5050000  93.3320000  54.6580000  70.3450000  95.8170000  43.1380000
  71.3710000  94.7040000  44.4470000  68.1690000  96.5740000  43.8680000
  69.1270000  96.5310000  42.9090000  71.0110000  95.7940000  42.4620000
  67.3670000  97.0560000  43.7020000  68.9880000  96.9760000  42.0810000
  66.4740000  84.0300000   7.6140000  66.6440000  83.3540000   8.8380000
  67.4500000  84.0250000   6.6100000  65.2300000  84.7600000   7.3820000
  67.4460000  82.8660000   8.9900000  65.6720000  83.3810000   9.8280000
  68.2630000  83.5530000   6.7410000  67.2790000  84.7050000   5.3970000
  64.2460000  84.7640000   8.4010000  65.0590000  85.4400000   6.1690000
  64.4410000  84.1050000   9.6010000  65.8440000  82.7210000  11.0820000
  68.2640000  84.7000000   4.3780000  66.0350000  85.4340000   5.1650000
  63.4310000  85.2320000   8.2560000  64.2460000  85.9120000   6.0380000
  63.4570000  84.1220000  10.6390000  66.6460000  82.2400000  11.2470000
  64.8860000  82.7640000  12.0400000  68.0680000  85.3600000   3.1770000
  69.0780000  84.2330000   4.5230000  65.8650000  86.1110000   3.9410000
  63.6680000  83.4780000  11.8110000  62.6420000  84.5910000  10.5020000
  65.0240000  82.3190000  12.8680000  69.0520000  85.3430000   2.1400000
  66.8370000  86.0840000   2.9510000  65.0630000  86.5990000   3.7890000
  63.0020000  83.5020000  12.4870000  68.8410000  85.9860000   0.9680000
  69.8670000  84.8740000   2.2760000  66.6650000  86.7440000   1.6970000
  67.6230000  86.7010000   0.7390000  69.5070000  85.9630000   0.2920000
  65.8630000  87.2250000   1.5310000  67.4850000  87.1460000  -0.0890000
  68.0400000  98.5420000  61.3920000  67.8700000  99.2190000  60.1680000
  67.0640000  98.5470000  62.3960000  69.2840000  97.8130000  61.6240000
  67.0690000  99.7060000  60.0160000  68.8420000  99.1910000  59.1780000
  66.2510000  99.0190000  62.2650000  67.2350000  97.8670000  63.6090000
  70.2690000  97.8080000  60.6050000  69.4550000  97.1330000  62.8370000
  70.0730000  98.4670000  59.4050000  68.6700000  99.8510000  57.9250000
  66.2510000  97.8720000  64.6280000  68.4790000  97.1380000  63.8410000
  71.0830000  97.3400000  60.7500000  70.2680000  96.6600000  62.9680000
  71.0570000  98.4500000  58.3670000  67.8680000 100.3320000  57.7590000
  69.6280000  99.8080000  56.9660000  66.4460000  97.2130000  65.8290000
  65.4360000  98.3390000  64.4830000  68.6500000  96.4610000  65.0650000
  70.8460000  99.0940000  57.1950000  71.8720000  97.9810000  58.5040000
  69.4900000 100.2530000  56.1380000  65.4620000  97.2290000  66.8660000
  67.6770000  96.4880000  66.0550000  69.4510000  95.9730000  65.2170000
  71.5130000  99.0700000  56.5190000  65.6730000  96.5860000  68.0380000
  64.6470000  97.6980000  66.7300000  67.8490000  95.8280000  67.3090000
  66.8910000  95.8710000  68.2680000  65.0070000  96.6090000  68.7150000
  68.6510000  95.3470000  67.4750000  67.0290000  95.4260000  69.0960000
  69.4820000 103.6910000  91.9550000  69.6520000 103.0150000  93.1790000
  70.4570000 103.6860000  90.9510000  68.2370000 104.4210000  91.7230000
  70.4530000 102.5270000  93.3310000  68.6790000 103.0420000  94.1690000
  71.2710000 103.2140000  91.0820000  70.2870000 104.3660000  89.7380000
  67.2530000 104.4250000  92.7420000  68.0670000 105.1010000  90.5100000
  67.4490000 103.7660000  93.9420000  68.8510000 102.3820000  95.4230000
  71.2710000 104.3610000  88.7190000  69.0430000 105.0950000  89.5060000
  66.4390000 104.8930000  92.5970000  67.2530000 105.5730000  90.3790000
  66.4650000 103.7830000  94.9800000  69.6540000 101.9010000  95.5880000
  67.8940000 102.4250000  96.3810000  71.0750000 105.0210000  87.5180000
  72.0850000 103.8940000  88.8640000  68.8720000 105.7720000  88.2820000
  66.6760000 103.1390000  96.1520000  65.6500000 104.2520000  94.8430000
  68.0320000 101.9800000  97.2090000  72.0600000 105.0040000  86.4810000
  69.8450000 105.7450000  87.2920000  68.0710000 106.2600000  88.1300000
  66.0090000 103.1630000  96.8280000  71.8490000 105.6470000  85.3090000
  72.8740000 104.5350000  86.6170000  69.6730000 106.4050000  86.0380000
  70.6310000 106.3620000  85.0800000  72.5150000 105.6240000  84.6320000
  68.8700000 106.8860000  85.8720000  70.4920000 106.8070000  84.2520000
  63.5300000  53.3160000   7.6140000  63.7000000  52.6390000   8.8380000
  64.5050000  53.3110000   6.6100000  62.2850000  54.0450000   7.3820000
  64.5010000  52.1520000   8.9900000  62.7270000  52.6660000   9.8280000
  65.3190000  52.8380000   6.7410000  64.3350000  53.9910000   5.3970000
  61.3010000  54.0500000   8.4010000  62.1150000  54.7250000   6.1690000
  61.4970000  53.3910000   9.6010000  62.8990000  52.0070000  11.0820000
  65.3190000  53.9860000   4.3780000  63.0910000  54.7200000   5.1650000
  60.4870000  54.5180000   8.2560000  61.3010000  55.1980000   6.0380000
  60.5120000  53.4080000  10.6390000  63.7020000  51.5250000  11.2470000
  61.9420000  52.0500000  12.0400000  65.1230000  54.6450000   3.1770000
  66.1330000  53.5180000   4.5230000  62.9200000  55.3970000   3.9410000
  60.7240000  52.7640000  11.8110000  59.6980000  53.8770000  10.5020000
  62.0800000  51.6050000  12.8680000  66.1080000  54.6280000   2.1400000
  63.8930000  55.3700000   2.9510000  62.1190000  55.8840000   3.7890000
  60.0570000  52.7870000  12.4870000  65.8960000  55.2720000   0.9680000
  66.9220000  54.1600000   2.2760000  63.7210000  56.0290000   1.6970000
  64.6790000  55.9860000   0.7390000  66.5630000  55.2490000   0.2920000
  62.9180000  56.5110000   1.5310000  64.5400000  56.4320000  -0.0890000
  64.2660000  60.9950000   7.6140000  64.4360000  60.3180000   8.8380000
  65.2410000  60.9890000   6.6100000  63.0220000  61.7240000   7.3820000
  65.2370000  59.8300000   8.9900000  63.4640000  60.3450000   9.8280000
  66.0550000  60.5170000   6.7410000  65.0710000  61.6700000   5.3970000
  62.0370000  61.7290000   8.4010000  62.8510000  62.4040000   6.1690000
  62.2330000  61.0690000   9.6010000  63.6350000  59.6850000  11.0820000
  66.0550000  61.6650000   4.3780000  63.8270000  62.3990000   5.1650000
  61.2230000  62.1960000   8.2560000  62.0370000  62.8760000   6.0380000
  61.2490000  61.0860000  10.6390000  64.4380000  59.2040000  11.2470000
  62.6780000  59.7280000  12.0400000  65.8600000  62.3240000   3.1770000
  66.8700000  61.1970000   4.5230000  63.6560000  63.0750000   3.9410000
  61.4600000  60.4430000  11.8110000  60.4340000  61.5550000  10.5020000
  62.8160000  59.2830000  12.8680000  66.8440000  62.3070000   2.1400000
  64.6290000  63.0480000   2.9510000  62.8550000  63.5630000   3.7890000
  60.7930000  60.4660000  12.4870000  66.6330000  62.9510000   0.9680000
  67.6590000  61.8380000   2.2760000  64.4570000  63.7080000   1.6970000
  65.4150000  63.6650000   0.7390000  67.2990000  62.9270000   0.2920000
  63.6540000  64.1890000   1.5310000  65.2760000  64.1100000  -0.0890000
  62.3550000  31.3070000  77.8980000  62.5260000  30.6300000  79.1220000
  63.3310000  31.3020000  76.8940000  61.1110000  32.0360000  77.6660000
  63.3270000  30.1430000  79.2740000  61.5530000  30.6580000  80.1120000
  64.1450000  30.8300000  77.0250000  63.1600000  31.9820000  75.6810000
  60.1270000  32.0410000  78.6850000  60.9410000  32.7160000  76.4530000
  60.3220000  31.3820000  79.8860000  61.7250000  29.9980000  81.3660000
  64.1450000  31.9770000  74.6620000  61.9160000  32.7110000  75.4490000
  59.3130000  32.5090000  78.5400000  60.1270000  33.1890000  76.3220000
  59.3380000  31.3990000  80.9230000  62.5280000  29.5170000  81.5320000
  60.7670000  30.0410000  82.3240000  63.9490000  32.6360000  73.4620000
  64.9590000  31.5100000  74.8070000  61.7460000  33.3880000  74.2250000
  59.5490000  30.7550000  82.0950000  58.5240000  31.8680000  80.7870000
  60.9060000  29.5960000  83.1520000  64.9330000  32.6200000  72.4240000
  62.7180000  33.3610000  73.2350000  60.9450000  33.8760000  74.0730000
  58.8830000  30.7790000  82.7710000  64.7220000  33.2630000  71.2520000
  65.7480000  32.1510000  72.5610000  62.5470000  34.0210000  71.9810000
  63.5040000  33.9780000  71.0230000  65.3890000  33.2400000  70.5760000
  61.7440000  34.5020000  71.8150000  63.3660000  34.4230000  70.1950000
  61.8540000  28.0300000  63.8410000  62.0240000  27.3540000  65.0650000
  62.8300000  28.0250000  62.8370000  60.6100000  28.7590000  63.6090000
  62.8260000  26.8660000  65.2170000  61.0520000  27.3810000  66.0550000
  63.6430000  27.5530000  62.9680000  62.6590000  28.7050000  61.6240000
  59.6260000  28.7640000  64.6280000  60.4390000  29.4400000  62.3960000
  59.8210000  28.1050000  65.8290000  61.2240000  26.7210000  67.3090000
  63.6440000  28.7000000  60.6050000  61.4150000  29.4340000  61.3920000
  58.8110000  29.2320000  64.4830000  59.6260000  29.9120000  62.2650000
  58.8370000  28.1220000  66.8660000  62.0260000  26.2400000  67.4750000
  60.2660000  26.7640000  68.2680000  63.4480000  29.3600000  59.4050000
  64.4580000  28.2330000  60.7500000  61.2450000  30.1110000  60.1680000
  59.0480000  27.4780000  68.0380000  58.0220000  28.5910000  66.7300000
  60.4040000  26.3190000  69.0960000  64.4320000  29.3430000  58.3670000
  62.2170000  30.0840000  59.1780000  60.4430000  30.5990000  60.0160000
  58.3820000  27.5020000  68.7150000  64.2210000  29.9860000  57.1950000
  65.2470000  28.8740000  58.5040000  62.0450000  30.7440000  57.9250000
  63.0030000  30.7010000  56.9660000  64.8870000  29.9630000  56.5190000
  61.2430000  31.2250000  57.7590000  62.8650000  31.1460000  56.1380000
  62.4180000  35.9880000  89.5060000  62.2470000  36.6650000  88.2820000
  61.4420000  35.9930000  90.5100000  63.6620000  35.2590000  89.7380000
  61.4460000  37.1520000  88.1300000  63.2200000  36.6380000  87.2920000
  60.6280000  36.4660000  90.3790000  61.6120000  35.3130000  91.7230000
  64.6460000  35.2540000  88.7190000  63.8320000  34.5790000  90.9510000
  64.4500000  35.9130000  87.5180000  63.0480000  37.2970000  86.0380000
  60.6280000  35.3180000  92.7420000  62.8570000  34.5840000  91.9550000
  65.4600000  34.7860000  88.8640000  64.6460000  34.1060000  91.0820000
  65.4350000  35.8960000  86.4810000  62.2450000  37.7790000  85.8720000
  64.0060000  37.2540000  85.0800000  60.8240000  34.6590000  93.9420000
  59.8140000  35.7860000  92.5970000  63.0270000  33.9070000  93.1790000
  65.2230000  36.5400000  85.3090000  66.2490000  35.4280000  86.6170000
  63.8670000  37.7000000  84.2520000  59.8390000  34.6760000  94.9800000
  62.0540000  33.9340000  94.1690000  63.8280000  33.4200000  93.3310000
  65.8900000  36.5170000  84.6320000  60.0510000  34.0320000  96.1520000
  59.0250000  35.1450000  94.8430000  62.2260000  33.2750000  95.4230000
  61.2690000  33.3180000  96.3810000  59.3840000  34.0550000  96.8280000
  63.0290000  32.7930000  95.5880000  61.4070000  32.8730000  97.2090000
  66.2710000  74.1020000  63.8410000  66.4410000  73.4250000  65.0650000
  67.2460000  74.0970000  62.8370000  65.0270000  74.8310000  63.6090000
  67.2420000  72.9380000  65.2170000  65.4690000  73.4520000  66.0550000
  68.0600000  73.6240000  62.9680000  67.0760000  74.7770000  61.6240000
  64.0420000  74.8360000  64.6280000  64.8560000  75.5110000  62.3960000
  64.2380000  74.1770000  65.8290000  65.6400000  72.7930000  67.3090000
  68.0600000  74.7720000  60.6050000  65.8320000  75.5060000  61.3920000
  63.2280000  75.3040000  64.4830000  64.0420000  75.9840000  62.2650000
  63.2540000  74.1940000  66.8660000  66.4430000  72.3110000  67.4750000
  64.6830000  72.8360000  68.2680000  67.8650000  75.4310000  59.4050000
  68.8750000  74.3040000  60.7500000  65.6610000  76.1830000  60.1680000
  63.4650000  73.5500000  68.0380000  62.4390000  74.6620000  66.7300000
  64.8210000  72.3910000  69.0960000  68.8490000  75.4140000  58.3670000
  66.6340000  76.1560000  59.1780000  64.8600000  76.6700000  60.0160000
  62.7980000  73.5730000  68.7150000  68.6380000  76.0580000  57.1950000
  69.6640000  74.9460000  58.5040000  66.4620000  76.8150000  57.9250000
  67.4200000  76.7720000  56.9660000  69.3040000  76.0350000  56.5190000
  65.6600000  77.2970000  57.7590000  67.2810000  77.2170000  56.1380000
  62.3790000   7.2980000  21.8580000  62.5350000   7.1790000  23.2490000
  63.3600000   7.8560000  21.0270000  61.1480000   6.8100000  21.2530000
  63.3370000   7.4970000  23.6500000  61.5590000   6.6140000  24.0590000
  64.1730000   8.1730000  21.3990000  63.1810000   7.9580000  19.6390000
  60.1560000   6.2390000  22.0850000  60.9690000   6.9120000  19.8660000
  60.3350000   6.1380000  23.4600000  61.7230000   6.4880000  25.4810000
  64.1720000   8.5290000  18.8070000  61.9500000   7.4700000  19.0350000
  59.3510000   5.9180000  21.6960000  60.1550000   6.5950000  19.4930000
  59.3390000   5.5520000  24.3230000  62.5230000   6.7950000  25.8930000
  60.7440000   5.9370000  26.2430000  63.9940000   8.6300000  17.4320000
  64.9780000   8.8500000  19.1970000  61.7930000   7.5890000  17.6430000
  59.5370000   5.4550000  25.6590000  58.5290000   5.2280000  23.9480000
  60.8650000   5.8720000  27.1840000  64.9900000   9.2160000  16.5690000
  62.7690000   8.1540000  16.8340000  60.9920000   7.2710000  17.2430000
  58.8680000   5.0630000  26.2080000  64.7920000   9.3130000  15.2340000
  65.8000000   9.5400000  16.9450000  62.6050000   8.2800000  15.4110000
  63.5840000   8.8310000  14.6490000  65.4600000   9.7050000  14.6840000
  61.8060000   7.9730000  14.9990000  63.4630000   8.8960000  13.7090000
  62.4510000  10.7460000  33.0920000  62.2950000  10.8660000  31.7000000
  61.4700000  10.1890000  33.9230000  63.6820000  11.2340000  33.6960000
  61.4930000  10.5480000  31.3000000  63.2700000  11.4310000  30.8900000
  60.6560000   9.8720000  33.5500000  61.6490000  10.0870000  35.3100000
  64.6740000  11.8060000  32.8640000  63.8610000  11.1320000  35.0840000
  64.4950000  11.9070000  31.4890000  63.1070000  11.5560000  29.4680000
  60.6570000   9.5160000  36.1420000  62.8800000  10.5750000  35.9140000
  65.4790000  12.1270000  33.2530000  64.6750000  11.4500000  35.4560000
  65.4910000  12.4930000  30.6260000  62.3070000  11.2500000  29.0560000
  64.0860000  12.1080000  28.7060000  60.8360000   9.4150000  37.5170000
  59.8520000   9.1950000  35.7530000  63.0360000  10.4560000  37.3060000
  65.2930000  12.5900000  29.2910000  66.3010000  12.8170000  31.0020000
  63.9640000  12.1720000  27.7660000  59.8400000   8.8290000  38.3800000
  62.0610000   9.8900000  38.1160000  63.8380000  10.7730000  37.7070000
  65.9620000  12.9820000  28.7410000  60.0380000   8.7320000  39.7150000
  59.0300000   8.5050000  38.0050000  62.2240000   9.7650000  39.5380000
  61.2450000   9.2140000  40.3000000  59.3690000   8.3400000  40.2650000
  63.0240000  10.0720000  39.9500000  61.3670000   9.1490000  41.2410000
  64.4560000  23.8540000  89.3190000  64.3000000  23.9730000  87.9270000
  63.4750000  23.2970000  90.1500000  65.6870000  24.3420000  89.9230000
  63.4980000  23.6560000  87.5270000  65.2760000  24.5390000  87.1180000
  62.6610000  22.9790000  89.7770000  63.6540000  23.1950000  91.5370000
  66.6790000  24.9130000  89.0910000  65.8660000  24.2400000  91.3110000
  66.5000000  25.0140000  87.7170000  65.1120000  24.6640000  85.6950000
  62.6620000  22.6230000  92.3690000  64.8850000  23.6830000  92.1420000
  67.4840000  25.2340000  89.4810000  66.6800000  24.5570000  91.6830000
  67.4960000  25.6000000  86.8530000  64.3120000  24.3570000  85.2830000
  66.0910000  25.2150000  84.9330000  62.8410000  22.5220000  93.7440000
  61.8570000  22.3020000  91.9800000  65.0410000  23.5630000  93.5330000
  67.2980000  25.6980000  85.5180000  68.3060000  25.9240000  87.2290000
  65.9700000  25.2800000  83.9930000  61.8450000  21.9360000  94.6070000
  64.0660000  22.9980000  94.3430000  65.8430000  23.8810000  93.9340000
  67.9670000  26.0890000  84.9680000  62.0430000  21.8390000  95.9430000
  61.0350000  21.6120000  94.2320000  64.2290000  22.8730000  95.7650000
  63.2500000  22.3210000  96.5270000  61.3750000  21.4470000  96.4920000
  65.0290000  23.1790000  96.1770000  63.3720000  22.2570000  97.4680000
  63.1870000  18.4250000  33.0920000  63.0310000  18.5450000  31.7000000
  62.2060000  17.8680000  33.9230000  64.4180000  18.9130000  33.6960000
  62.2290000  18.2270000  31.3000000  64.0070000  19.1100000  30.8900000
  61.3920000  17.5510000  33.5500000  62.3850000  17.7660000  35.3100000
  65.4100000  19.4850000  32.8640000  64.5970000  18.8110000  35.0840000
  65.2310000  19.5860000  31.4890000  63.8430000  19.2350000  29.4680000
  61.3930000  17.1940000  36.1420000  63.6160000  18.2540000  35.9140000
  66.2150000  19.8060000  33.2530000  65.4110000  19.1280000  35.4560000
  66.2270000  20.1720000  30.6260000  63.0430000  18.9290000  29.0560000
  64.8220000  19.7860000  28.7060000  61.5720000  17.0930000  37.5170000
  60.5880000  16.8730000  35.7530000  63.7730000  18.1340000  37.3060000
  66.0290000  20.2690000  29.2910000  67.0370000  20.4960000  31.0020000
  64.7010000  19.8510000  27.7660000  60.5760000  16.5070000  38.3800000
  62.7970000  17.5690000  38.1160000  64.5740000  18.4520000  37.7070000
  66.6980000  20.6600000  28.7410000  60.7740000  16.4100000  39.7150000
  59.7660000  16.1830000  38.0050000  62.9600000  17.4440000  39.5380000
  61.9810000  16.8930000  40.3000000  60.1060000  16.0180000  40.2650000
  63.7600000  17.7500000  39.9500000  62.1030000  16.8280000  41.2410000
  64.3520000  25.9320000  35.9140000  64.5090000  25.8130000  37.3060000
  65.3330000  26.4900000  35.0840000  63.1210000  25.4440000  35.3100000
  65.3100000  26.1310000  37.7070000  63.5330000  25.2480000  38.1160000
  66.1470000  26.8070000  35.4560000  65.1540000  26.5920000  33.6960000
  62.1300000  24.8730000  36.1420000  62.9420000  25.5460000  33.9230000
  62.3080000  24.7720000  37.5170000  63.6970000  25.1220000  39.5380000
  66.1460000  27.1630000  32.8640000  63.9230000  26.1040000  33.0920000
  61.3240000  24.5520000  35.7530000  62.1290000  25.2290000  33.5500000
  61.3120000  24.1860000  38.3800000  64.4960000  25.4290000  39.9500000
  62.7180000  24.5710000  40.3000000  65.9670000  27.2640000  31.4890000
  66.9510000  27.4840000  33.2530000  63.7670000  26.2230000  31.7000000
  61.5100000  24.0890000  39.7150000  60.5020000  23.8620000  38.0050000
  62.8390000  24.5060000  41.2410000  66.9630000  27.8500000  30.6260000
  64.7430000  26.7880000  30.8900000  62.9650000  25.9050000  31.3000000
  60.8420000  23.6970000  40.2650000  66.7650000  27.9470000  29.2910000
  67.7730000  28.1740000  31.0020000  64.5790000  26.9140000  29.4680000
  65.5580000  27.4650000  28.7060000  67.4340000  28.3390000  28.7410000
  63.7790000  26.6070000  29.0560000  65.4370000  27.5300000  27.7660000
  64.6590000  33.7820000  33.0920000  64.5030000  33.9020000  31.7000000
  63.6780000  33.2250000  33.9230000  65.8900000  34.2700000  33.6960000
  63.7020000  33.5840000  31.3000000  65.4790000  34.4670000  30.8900000
  62.8650000  32.9080000  33.5500000  63.8580000  33.1230000  35.3100000
  66.8820000  34.8420000  32.8640000  66.0700000  34.1680000  35.0840000
  66.7030000  34.9430000  31.4890000  65.3150000  34.5920000  29.4680000
  62.8660000  32.5510000  36.1420000  65.0880000  33.6110000  35.9140000
  67.6870000  35.1630000  33.2530000  66.8830000  34.4850000  35.4560000
  67.6990000  35.5290000  30.6260000  64.5150000  34.2860000  29.0560000
  66.2940000  35.1430000  28.7060000  63.0440000  32.4500000  37.5170000
  62.0600000  32.2300000  35.7530000  65.2450000  33.4920000  37.3060000
  67.5010000  35.6260000  29.2910000  68.5090000  35.8530000  31.0020000
  66.1730000  35.2080000  27.7660000  62.0480000  31.8640000  38.3800000
  64.2690000  32.9260000  38.1160000  66.0460000  33.8090000  37.7070000
  68.1700000  36.0180000  28.7410000  62.2460000  31.7670000  39.7150000
  61.2390000  31.5410000  38.0050000  64.4330000  32.8010000  39.5380000
  63.4540000  32.2500000  40.3000000  61.5780000  31.3760000  40.2650000
  65.2330000  33.1070000  39.9500000  63.5750000  32.1850000  41.2410000
  64.5870000  30.3340000  21.8580000  64.7440000  30.2150000  23.2490000
  65.5680000  30.8910000  21.0270000  63.3560000  29.8460000  21.2530000
  65.5450000  30.5320000  23.6500000  63.7680000  29.6490000  24.0590000
  66.3820000  31.2090000  21.3990000  65.3890000  30.9930000  19.6390000
  62.3640000  29.2750000  22.0850000  63.1770000  29.9480000  19.8660000
  62.5430000  29.1740000  23.4600000  63.9310000  29.5240000  25.4810000
  66.3810000  31.5650000  18.8070000  64.1580000  30.5050000  19.0350000
  61.5590000  28.9530000  21.6960000  62.3630000  29.6310000  19.4930000
  61.5470000  28.5880000  24.3230000  64.7310000  29.8310000  25.8930000
  62.9520000  28.9730000  26.2430000  66.2020000  31.6660000  17.4320000
  67.1860000  31.8860000  19.1970000  64.0020000  30.6250000  17.6430000
  61.7450000  28.4900000  25.6590000  60.7370000  28.2640000  23.9480000
  63.0740000  28.9080000  27.1840000  67.1980000  32.2520000  16.5690000
  64.9780000  31.1900000  16.8340000  63.2000000  30.3070000  17.2430000
  61.0770000  28.0990000  26.2080000  67.0000000  32.3490000  15.2340000
  68.0080000  32.5760000  16.9450000  64.8140000  31.3150000  15.4110000
  65.7930000  31.8670000  14.6490000  67.6690000  32.7410000  14.6840000
  64.0140000  31.0090000  14.9990000  65.6720000  31.9310000  13.7090000
  65.1610000  37.0590000  47.1490000  65.0040000  37.1790000  45.7570000
  64.1790000  36.5020000  47.9790000  66.3910000  37.5470000  47.7530000
  64.2030000  36.8610000  45.3560000  65.9800000  37.7440000  44.9470000
  63.3660000  36.1850000  47.6070000  64.3590000  36.4000000  49.3670000
  67.3830000  38.1190000  46.9210000  66.5710000  37.4450000  49.1400000
  67.2050000  38.2200000  45.5460000  65.8160000  37.8690000  43.5250000
  63.3670000  35.8280000  50.1990000  65.5900000  36.8880000  49.9710000
  68.1890000  38.4400000  47.3100000  67.3840000  37.7620000  49.5130000
  68.2010000  38.8060000  44.6830000  65.0160000  37.5630000  43.1130000
  66.7950000  38.4200000  42.7630000  63.5460000  35.7270000  51.5740000
  62.5620000  35.5070000  49.8100000  65.7460000  36.7680000  51.3630000
  68.0030000  38.9030000  43.3480000  69.0100000  39.1300000  45.0580000
  66.6740000  38.4850000  41.8220000  62.5500000  35.1410000  52.4370000
  64.7700000  36.2030000  52.1730000  66.5470000  37.0860000  51.7630000
  68.6710000  39.2950000  42.7980000  62.7480000  35.0440000  53.7720000
  61.7400000  34.8170000  52.0610000  64.9340000  36.0780000  53.5950000
  63.9550000  35.5270000  54.3570000  62.0790000  34.6520000  54.3220000
  65.7340000  36.3840000  54.0070000  64.0760000  35.4620000  55.2970000
  66.0910000  40.1650000  64.0280000  66.2470000  40.0450000  65.4200000
  67.0720000  40.7220000  63.1970000  64.8600000  39.6770000  63.4240000
  67.0490000  40.3630000  65.8200000  65.2710000  39.4800000  66.2290000
  67.8860000  41.0390000  63.5700000  66.8930000  40.8240000  61.8100000
  63.8680000  39.1050000  64.2560000  64.6810000  39.7790000  62.0360000
  64.0470000  39.0040000  65.6300000  65.4350000  39.3550000  67.6520000
  67.8850000  41.3950000  60.9780000  65.6620000  40.3360000  61.2050000
  63.0630000  38.7840000  63.8660000  63.8670000  39.4610000  61.6640000
  63.0510000  38.4180000  66.4940000  66.2350000  39.6610000  68.0640000
  64.4560000  38.8040000  68.4140000  67.7060000  41.4970000  59.6030000
  68.6900000  41.7170000  61.3670000  65.5050000  40.4550000  59.8140000
  63.2490000  38.3210000  67.8290000  62.2410000  38.0940000  66.1180000
  64.5770000  38.7390000  69.3540000  68.7020000  42.0820000  58.7400000
  66.4810000  41.0210000  59.0040000  64.7040000  40.1380000  59.4130000
  62.5800000  37.9290000  68.3790000  68.5040000  42.1800000  57.4040000
  69.5120000  42.4060000  59.1150000  66.3180000  41.1460000  57.5820000
  67.2960000  41.6970000  56.8200000  69.1720000  42.5710000  56.8550000
  65.5180000  40.8400000  57.1700000  67.1750000  41.7620000  55.8790000
  66.6640000  46.8900000  89.3190000  66.5080000  47.0090000  87.9270000
  65.6830000  46.3320000  90.1500000  67.8950000  47.3780000  89.9230000
  65.7070000  46.6910000  87.5270000  67.4840000  47.5740000  87.1180000
  64.8700000  46.0150000  89.7770000  65.8630000  46.2300000  91.5370000
  68.8870000  47.9490000  89.0910000  68.0750000  47.2760000  91.3110000
  68.7080000  48.0500000  87.7170000  67.3200000  47.7000000  85.6950000
  64.8710000  45.6590000  92.3690000  67.0930000  46.7180000  92.1420000
  69.6920000  48.2700000  89.4810000  68.8880000  47.5930000  91.6830000
  69.7040000  48.6360000  86.8530000  66.5200000  47.3930000  85.2830000
  68.2990000  48.2510000  84.9330000  65.0490000  45.5580000  93.7440000
  64.0650000  45.3380000  91.9800000  67.2500000  46.5990000  93.5330000
  69.5060000  48.7330000  85.5180000  70.5140000  48.9600000  87.2290000
  68.1780000  48.3160000  83.9930000  64.0530000  44.9720000  94.6070000
  66.2740000  46.0340000  94.3430000  68.0510000  46.9160000  93.9340000
  70.1750000  49.1250000  84.9680000  64.2510000  44.8750000  95.9430000
  63.2440000  44.6480000  94.2320000  66.4380000  45.9080000  95.7650000
  65.4590000  45.3570000  96.5270000  63.5830000  44.4830000  96.4920000
  67.2380000  46.2150000  96.1770000  65.5800000  45.2920000  97.4680000
  64.8940000  38.1840000  19.0350000  64.7380000  38.3030000  17.6430000
  63.9130000  37.6270000  19.8660000  66.1250000  38.6720000  19.6390000
  63.9360000  37.9860000  17.2430000  65.7140000  38.8690000  16.8340000
  63.1000000  37.3100000  19.4930000  64.0920000  37.5250000  21.2530000
  67.1170000  39.2440000  18.8070000  66.3040000  38.5700000  21.0270000
  66.9380000  39.3450000  17.4320000  65.5500000  38.9940000  15.4110000
  63.1000000  36.9530000  22.0850000  65.3230000  38.0130000  21.8580000
  67.9220000  39.5650000  19.1970000  67.1180000  38.8870000  21.3990000
  67.9340000  39.9310000  16.5690000  64.7500000  38.6880000  14.9990000
  66.5290000  39.5450000  14.6490000  63.2790000  36.8520000  23.4600000
  62.2950000  36.6320000  21.6960000  65.4800000  37.8930000  23.2490000
  67.7360000  40.0280000  15.2340000  68.7440000  40.2550000  16.9450000
  66.4080000  39.6100000  13.7090000  62.2830000  36.2660000  24.3230000
  64.5040000  37.3280000  24.0590000  66.2810000  38.2110000  23.6500000
  68.4050000  40.4190000  14.6840000  62.4810000  36.1690000  25.6590000
  61.4730000  35.9420000  23.9480000  64.6680000  37.2030000  25.4810000
  63.6890000  36.6520000  26.2430000  61.8130000  35.7770000  26.2080000
  65.4670000  37.5090000  25.8930000  63.8100000  36.5870000  27.1840000
  65.3950000  41.4610000  33.0920000  65.2390000  41.5800000  31.7000000
  64.4140000  40.9040000  33.9230000  66.6260000  41.9490000  33.6960000
  64.4380000  41.2630000  31.3000000  66.2150000  42.1460000  30.8900000
  63.6010000  40.5860000  33.5500000  64.5940000  40.8020000  35.3100000
  67.6180000  42.5200000  32.8640000  66.8060000  41.8470000  35.0840000
  67.4400000  42.6210000  31.4890000  66.0510000  42.2710000  29.4680000
  63.6020000  40.2300000  36.1420000  65.8240000  41.2900000  35.9140000
  68.4230000  42.8420000  33.2530000  67.6190000  42.1640000  35.4560000
  68.4360000  43.2070000  30.6260000  65.2510000  41.9640000  29.0560000
  67.0300000  42.8220000  28.7060000  63.7800000  40.1290000  37.5170000
  62.7960000  39.9090000  35.7530000  65.9810000  41.1700000  37.3060000
  68.2380000  43.3050000  29.2910000  69.2450000  43.5310000  31.0020000
  66.9090000  42.8870000  27.7660000  62.7840000  39.5430000  38.3800000
  65.0050000  40.6050000  38.1160000  66.7820000  41.4880000  37.7070000
  68.9060000  43.6960000  28.7410000  62.9820000  39.4460000  39.7150000
  61.9750000  39.2190000  38.0050000  65.1690000  40.4800000  39.5380000
  64.1900000  39.9290000  40.3000000  62.3140000  39.0540000  40.2650000
  65.9690000  40.7860000  39.9500000  64.3110000  39.8640000  41.2410000
  67.3280000  51.1200000  78.0850000  67.4850000  51.0010000  79.4760000
  68.3090000  51.6770000  77.2540000  66.0970000  50.6320000  77.4800000
  68.2860000  51.3180000  79.8770000  66.5090000  50.4350000  80.2860000
  69.1230000  51.9950000  77.6270000  68.1300000  51.7790000  75.8670000
  65.1060000  50.0610000  78.3130000  65.9180000  50.7340000  76.0930000
  65.2840000  49.9590000  79.6870000  66.6730000  50.3100000  81.7090000
  69.1220000  52.3510000  75.0350000  66.8990000  51.2910000  75.2620000
  64.3000000  49.7390000  77.9230000  65.1050000  50.4170000  75.7200000
  64.2880000  49.3740000  80.5500000  67.4720000  50.6170000  82.1210000
  65.6940000  49.7590000  82.4710000  68.9430000  52.4520000  73.6600000
  69.9270000  52.6720000  75.4240000  66.7430000  51.4110000  73.8710000
  64.4860000  49.2760000  81.8860000  63.4780000  49.0500000  80.1750000
  65.8150000  49.6940000  83.4110000  69.9390000  53.0380000  72.7970000
  67.7190000  51.9760000  73.0610000  65.9410000  51.0930000  73.4700000
  63.8180000  48.8850000  82.4350000  69.7410000  53.1350000  71.4610000
  70.7490000  53.3620000  73.1720000  67.5550000  52.1010000  71.6380000
  68.5340000  52.6520000  70.8770000  70.4100000  53.5270000  70.9120000
  66.7550000  51.7950000  71.2270000  68.4130000  52.7170000  69.9360000
  64.3930000  34.9070000   4.9780000  64.2360000  35.0270000   3.5870000
  63.4120000  34.3500000   5.8090000  65.6240000  35.3950000   5.5830000
  63.4350000  34.7090000   3.1860000  65.2120000  35.5920000   2.7770000
  62.5980000  34.0330000   5.4360000  63.5910000  34.2480000   7.1960000
  66.6160000  35.9670000   4.7500000  65.8030000  35.2930000   6.9700000
  66.4370000  36.0680000   3.3760000  65.0490000  35.7170000   1.3540000
  62.5990000  33.6760000   8.0280000  64.8220000  34.7360000   7.8010000
  67.4210000  36.2880000   5.1400000  66.6170000  35.6100000   7.3430000
  67.4330000  36.6540000   2.5130000  64.2490000  35.4110000   0.9420000
  66.0280000  36.2680000   0.5920000  62.7780000  33.5750000   9.4030000
  61.7940000  33.3550000   7.6390000  64.9780000  34.6160000   9.1920000
  67.2350000  36.7510000   1.1770000  68.2430000  36.9780000   2.8880000
  65.9060000  36.3330000  -0.3480000  61.7820000  32.9890000  10.2660000
  64.0020000  34.0510000  10.0020000  65.7800000  34.9340000   9.5930000
  67.9030000  37.1430000   0.6280000  61.9800000  32.8920000  11.6020000
  60.9720000  32.6650000   9.8910000  64.1660000  33.9260000  11.4250000
  63.1870000  33.3750000  12.1860000  61.3110000  32.5010000  12.1510000
  64.9660000  34.2320000  11.8360000  63.3080000  33.3100000  13.1270000
  66.5610000  48.9680000  35.9140000  66.7170000  48.8490000  37.3060000
  67.5420000  49.5250000  35.0840000  65.3300000  48.4800000  35.3100000
  67.5180000  49.1660000  37.7070000  65.7410000  48.2830000  38.1160000
  68.3550000  49.8430000  35.4560000  67.3620000  49.6270000  33.6960000
  64.3380000  47.9090000  36.1420000  65.1500000  48.5820000  33.9230000
  64.5170000  47.8080000  37.5170000  65.9050000  48.1580000  39.5380000
  68.3540000  50.1990000  32.8640000  66.1320000  49.1390000  33.0920000
  63.5330000  47.5870000  35.7530000  64.3370000  48.2650000  33.5500000
  63.5210000  47.2220000  38.3800000  66.7050000  48.4650000  39.9500000
  64.9260000  47.6070000  40.3000000  68.1760000  50.3000000  31.4890000
  69.1600000  50.5200000  33.2530000  65.9750000  49.2590000  31.7000000
  63.7190000  47.1240000  39.7150000  62.7110000  46.8980000  38.0050000
  65.0470000  47.5420000  41.2410000  69.1720000  50.8860000  30.6260000
  66.9510000  49.8240000  30.8900000  65.1740000  48.9410000  31.3000000
  63.0500000  46.7330000  40.2650000  68.9740000  50.9830000  29.2910000
  69.9810000  51.2100000  31.0020000  66.7870000  49.9490000  29.4680000
  67.7660000  50.5010000  28.7060000  69.6420000  51.3750000  28.7410000
  65.9870000  49.6430000  29.0560000  67.6450000  50.5650000  27.7660000
  66.0590000  45.6910000  21.8580000  66.2160000  45.5720000  23.2490000
  67.0410000  46.2490000  21.0270000  64.8290000  45.2030000  21.2530000
  67.0170000  45.8900000  23.6500000  65.2400000  45.0070000  24.0590000
  67.8540000  46.5660000  21.3990000  66.8610000  46.3510000  19.6390000
  63.8370000  44.6320000  22.0850000  64.6490000  45.3050000  19.8660000
  64.0150000  44.5310000  23.4600000  65.4040000  44.8810000  25.4810000
  67.8530000  46.9220000  18.8070000  65.6300000  45.8630000  19.0350000
  63.0310000  44.3110000  21.6960000  63.8360000  44.9880000  19.4930000
  63.0190000  43.9450000  24.3230000  66.2030000  45.1880000  25.8930000
  64.4250000  44.3300000  26.2430000  67.6740000  47.0230000  17.4320000
  68.6580000  47.2430000  19.1970000  65.4740000  45.9820000  17.6430000
  63.2170000  43.8480000  25.6590000  62.2090000  43.6210000  23.9480000
  64.5460000  44.2650000  27.1840000  68.6700000  47.6090000  16.5690000
  66.4500000  46.5470000  16.8340000  64.6730000  45.6640000  17.2430000
  62.5490000  43.4560000  26.2080000  68.4720000  47.7060000  15.2340000
  69.4800000  47.9330000  16.9450000  66.2860000  46.6730000  15.4110000
  67.2650000  47.2240000  14.6490000  69.1410000  48.0980000  14.6840000
  65.4860000  46.3660000  14.9990000  67.1440000  47.2890000  13.7090000
  68.1370000  62.2470000  89.3190000  67.9800000  62.3660000  87.9270000
  67.1550000  61.6890000  90.1500000  69.3670000  62.7350000  89.9230000
  67.1790000  62.0490000  87.5270000  68.9560000  62.9320000  87.1180000
  66.3420000  61.3720000  89.7770000  67.3350000  61.5880000  91.5370000
  70.3590000  63.3060000  89.0910000  69.5470000  62.6330000  91.3110000
  70.1810000  63.4070000  87.7170000  68.7920000  63.0570000  85.6950000
  66.3430000  61.0160000  92.3690000  68.5660000  62.0760000  92.1420000
  71.1650000  63.6270000  89.4810000  70.3600000  62.9500000  91.6830000
  71.1770000  63.9930000  86.8530000  67.9920000  62.7500000  85.2830000
  69.7710000  63.6080000  84.9330000  66.5220000  60.9150000  93.7440000
  65.5380000  60.6950000  91.9800000  68.7220000  61.9560000  93.5330000
  70.9790000  64.0900000  85.5180000  71.9860000  64.3170000  87.2290000
  69.6500000  63.6730000  83.9930000  65.5260000  60.3290000  94.6070000
  67.7460000  61.3910000  94.3430000  69.5230000  62.2740000  93.9340000
  71.6470000  64.4820000  84.9680000  65.7240000  60.2320000  95.9430000
  64.7160000  60.0050000  94.2320000  67.9100000  61.2660000  95.7650000
  66.9310000  60.7140000  96.5270000  65.0550000  59.8400000  96.4920000
  68.7100000  61.5720000  96.1770000  67.0520000  60.6500000  97.4680000
  66.3660000  53.5410000  19.0350000  66.2100000  53.6610000  17.6430000
  65.3850000  52.9840000  19.8660000  67.5970000  54.0290000  19.6390000
  65.4090000  53.3430000  17.2430000  67.1860000  54.2260000  16.8340000
  64.5720000  52.6670000  19.4930000  65.5650000  52.8820000  21.2530000
  68.5890000  54.6010000  18.8070000  67.7770000  53.9270000  21.0270000
  68.4100000  54.7020000  17.4320000  67.0220000  54.3510000  15.4110000
  64.5730000  52.3100000  22.0850000  66.7950000  53.3700000  21.8580000
  69.3940000  54.9220000  19.1970000  68.5900000  54.2440000  21.3990000
  69.4060000  55.2880000  16.5690000  66.2220000  54.0450000  14.9990000
  68.0010000  54.9020000  14.6490000  64.7510000  52.2090000  23.4600000
  63.7670000  51.9890000  21.6960000  66.9520000  53.2510000  23.2490000
  69.2090000  55.3850000  15.2340000  70.2160000  55.6120000  16.9450000
  67.8800000  54.9670000  13.7090000  63.7550000  51.6230000  24.3230000
  65.9760000  52.6850000  24.0590000  67.7530000  53.5680000  23.6500000
  69.8770000  55.7770000  14.6840000  63.9530000  51.5260000  25.6590000
  62.9460000  51.2990000  23.9480000  66.1400000  52.5600000  25.4810000
  65.1610000  52.0090000  26.2430000  63.2850000  51.1350000  26.2080000
  66.9400000  52.8660000  25.8930000  65.2820000  51.9440000  27.1840000
  66.8680000  56.8180000  33.0920000  66.7110000  56.9370000  31.7000000
  65.8870000  56.2610000  33.9230000  68.0980000  57.3060000  33.6960000
  65.9100000  56.6200000  31.3000000  67.6870000  57.5030000  30.8900000
  65.0730000  55.9440000  33.5500000  66.0660000  56.1590000  35.3100000
  69.0900000  57.8780000  32.8640000  68.2780000  57.2040000  35.0840000
  68.9120000  57.9790000  31.4890000  67.5230000  57.6280000  29.4680000
  65.0740000  55.5870000  36.1420000  67.2970000  56.6470000  35.9140000
  69.8960000  58.1990000  33.2530000  69.0910000  57.5210000  35.4560000
  69.9080000  58.5650000  30.6260000  66.7240000  57.3220000  29.0560000
  68.5020000  58.1790000  28.7060000  65.2530000  55.4860000  37.5170000
  64.2690000  55.2660000  35.7530000  67.4530000  56.5270000  37.3060000
  69.7100000  58.6620000  29.2910000  70.7180000  58.8890000  31.0020000
  68.3810000  58.2440000  27.7660000  64.2570000  54.9000000  38.3800000
  66.4770000  55.9620000  38.1160000  68.2550000  56.8450000  37.7070000
  70.3780000  59.0530000  28.7410000  64.4550000  54.8030000  39.7150000
  63.4470000  54.5760000  38.0050000  66.6410000  55.8370000  39.5380000
  65.6620000  55.2860000  40.3000000  63.7860000  54.4110000  40.2650000
  67.4410000  56.1430000  39.9500000  65.7830000  55.2210000  41.2410000
  67.5320000  61.0490000  21.8580000  67.6880000  60.9290000  23.2490000
  68.5130000  61.6060000  21.0270000  66.3010000  60.5610000  21.2530000
  68.4890000  61.2470000  23.6500000  66.7120000  60.3640000  24.0590000
  69.3260000  61.9230000  21.3990000  68.3330000  61.7080000  19.6390000
  65.3090000  59.9890000  22.0850000  66.1210000  60.6630000  19.8660000
  65.4880000  59.8880000  23.4600000  66.8760000  60.2390000  25.4810000
  69.3250000  62.2790000  18.8070000  67.1030000  61.2200000  19.0350000
  64.5040000  59.6680000  21.6960000  65.3080000  60.3450000  19.4930000
  64.4920000  59.3020000  24.3230000  67.6760000  60.5450000  25.8930000
  65.8970000  59.6870000  26.2430000  69.1470000  62.3800000  17.4320000
  70.1310000  62.6000000  19.1970000  66.9460000  61.3390000  17.6430000
  64.6890000  59.2050000  25.6590000  63.6820000  58.9780000  23.9480000
  66.0180000  59.6230000  27.1840000  70.1430000  62.9660000  16.5690000
  67.9220000  61.9050000  16.8340000  66.1450000  61.0220000  17.2430000
  64.0210000  58.8130000  26.2080000  69.9450000  63.0640000  15.2340000
  70.9520000  63.2900000  16.9450000  67.7580000  62.0300000  15.4110000
  68.7370000  62.5810000  14.6490000  70.6130000  63.4550000  14.6840000
  66.9580000  61.7230000  14.9990000  68.6160000  62.6460000  13.7090000
  68.0330000  64.3250000  35.9140000  68.1890000  64.2060000  37.3060000
  69.0140000  64.8830000  35.0840000  66.8020000  63.8370000  35.3100000
  68.9910000  64.5240000  37.7070000  67.2130000  63.6410000  38.1160000
  69.8280000  65.2000000  35.4560000  68.8350000  64.9850000  33.6960000
  65.8100000  63.2660000  36.1420000  66.6230000  63.9390000  33.9230000
  65.9890000  63.1650000  37.5170000  67.3770000  63.5150000  39.5380000
  69.8270000  65.5560000  32.8640000  67.6040000  64.4970000  33.0920000
  65.0050000  62.9450000  35.7530000  65.8090000  63.6220000  33.5500000
  64.9930000  62.5790000  38.3800000  68.1770000  63.8220000  39.9500000
  66.3980000  62.9640000  40.3000000  69.6480000  65.6570000  31.4890000
  70.6320000  65.8770000  33.2530000  67.4470000  64.6160000  31.7000000
  65.1910000  62.4820000  39.7150000  64.1830000  62.2550000  38.0050000
  66.5190000  62.8990000  41.2410000  70.6440000  66.2430000  30.6260000
  68.4230000  65.1810000  30.8900000  66.6460000  64.2980000  31.3000000
  64.5220000  62.0900000  40.2650000  70.4460000  66.3400000  29.2910000
  71.4540000  66.5670000  31.0020000  68.2590000  65.3070000  29.4680000
  69.2380000  65.8580000  28.7060000  71.1140000  66.7320000  28.7410000
  67.4600000  65.0000000  29.0560000  69.1170000  65.9230000  27.7660000
  70.0380000  77.4330000  92.1420000  70.1940000  77.3130000  93.5330000
  71.0190000  77.9900000  91.3110000  68.8070000  76.9450000  91.5370000
  70.9960000  77.6310000  93.9340000  69.2180000  76.7480000  94.3430000
  71.8330000  78.3070000  91.6830000  70.8400000  78.0920000  89.9230000
  67.8150000  76.3730000  92.3690000  68.6280000  77.0470000  90.1500000
  67.9940000  76.2720000  93.7440000  69.3820000  76.6230000  95.7650000
  71.8320000  78.6640000  89.0910000  69.6090000  77.6040000  89.3190000
  67.0100000  76.0520000  91.9800000  67.8140000  76.7290000  89.7770000
  66.9980000  75.6860000  94.6070000  70.1820000  76.9290000  96.1770000
  68.4030000  76.0720000  96.5270000  71.6530000  78.7650000  87.7170000
  72.6370000  78.9850000  89.4810000  69.4520000  77.7230000  87.9270000
  67.1960000  75.5890000  95.9430000  66.1880000  75.3620000  94.2320000
  68.5240000  76.0070000  97.4680000  72.6490000  79.3500000  86.8530000
  70.4280000  78.2890000  87.1180000  68.6510000  77.4060000  87.5270000
  66.5270000  75.1970000  96.4920000  72.4510000  79.4480000  85.5180000
  73.4590000  79.6740000  87.2290000  70.2650000  78.4140000  85.6950000
  71.2430000  78.9650000  84.9330000  73.1190000  79.8390000  84.9680000
  69.4650000  78.1080000  85.2830000  71.1220000  79.0300000  83.9930000
  68.3400000  72.1750000  33.0920000  68.1830000  72.2950000  31.7000000
  67.3590000  71.6180000  33.9230000  69.5710000  72.6630000  33.6960000
  67.3820000  71.9770000  31.3000000  69.1590000  72.8600000  30.8900000
  66.5450000  71.3010000  33.5500000  67.5380000  71.5160000  35.3100000
  70.5630000  73.2350000  32.8640000  69.7500000  72.5610000  35.0840000
  70.3840000  73.3360000  31.4890000  68.9960000  72.9850000  29.4680000
  66.5460000  70.9440000  36.1420000  68.7690000  72.0040000  35.9140000
  71.3680000  73.5560000  33.2530000  70.5640000  72.8780000  35.4560000
  71.3800000  73.9220000  30.6260000  68.1960000  72.6790000  29.0560000
  69.9750000  73.5360000  28.7060000  66.7250000  70.8430000  37.5170000
  65.7410000  70.6230000  35.7530000  68.9250000  71.8850000  37.3060000
  71.1820000  74.0190000  29.2910000  72.1900000  74.2460000  31.0020000
  69.8530000  73.6010000  27.7660000  65.7290000  70.2570000  38.3800000
  67.9490000  71.3190000  38.1160000  69.7270000  72.2020000  37.7070000
  71.8500000  74.4110000  28.7410000  65.9270000  70.1600000  39.7150000
  64.9190000  69.9330000  38.0050000  68.1130000  71.1940000  39.5380000
  67.1340000  70.6430000  40.3000000  65.2580000  69.7690000  40.2650000
  68.9130000  71.5000000  39.9500000  67.2550000  70.5780000  41.2410000
  70.7740000  85.1110000  92.1420000  70.9300000  84.9920000  93.5330000
  71.7550000  85.6690000  91.3110000  69.5430000  84.6230000  91.5370000
  71.7320000  85.3090000  93.9340000  69.9550000  84.4270000  94.3430000
  72.5690000  85.9860000  91.6830000  71.5760000  85.7710000  89.9230000
  68.5510000  84.0520000  92.3690000  69.3640000  84.7250000  90.1500000
  68.7300000  83.9510000  93.7440000  70.1180000  84.3010000  95.7650000
  72.5680000  86.3420000  89.0910000  70.3450000  85.2830000  89.3190000
  67.7460000  83.7310000  91.9800000  68.5500000  84.4080000  89.7770000
  67.7340000  83.3650000  94.6070000  70.9180000  84.6080000  96.1770000
  69.1390000  83.7500000  96.5270000  72.3890000  86.4430000  87.7170000
  73.3730000  86.6630000  89.4810000  70.1890000  85.4020000  87.9270000
  67.9320000  83.2680000  95.9430000  66.9240000  83.0410000  94.2320000
  69.2610000  83.6850000  97.4680000  73.3850000  87.0290000  86.8530000
  71.1640000  85.9670000  87.1180000  69.3870000  85.0840000  87.5270000
  67.2630000  82.8760000  96.4920000  73.1870000  87.1260000  85.5180000
  74.1950000  87.3530000  87.2290000  71.0010000  86.0930000  85.6950000
  71.9800000  86.6440000  84.9330000  73.8550000  87.5180000  84.9680000
  70.2010000  85.7860000  85.2830000  71.8580000  86.7090000  83.9930000
  68.5750000  76.5770000  19.0350000  68.4180000  76.6960000  17.6430000
  67.5940000  76.0200000  19.8660000  69.8060000  77.0650000  19.6390000
  67.6170000  76.3790000  17.2430000  69.3940000  77.2620000  16.8340000
  66.7800000  75.7030000  19.4930000  67.7730000  75.9180000  21.2530000
  70.7980000  77.6370000  18.8070000  69.9850000  76.9630000  21.0270000
  70.6190000  77.7380000  17.4320000  69.2300000  77.3870000  15.4110000
  66.7810000  75.3460000  22.0850000  69.0040000  76.4060000  21.8580000
  71.6030000  77.9580000  19.1970000  70.7980000  77.2800000  21.3990000
  71.6150000  78.3240000  16.5690000  68.4310000  77.0810000  14.9990000
  70.2090000  77.9380000  14.6490000  66.9600000  75.2450000  23.4600000
  65.9760000  75.0250000  21.6960000  69.1600000  76.2860000  23.2490000
  71.4170000  78.4210000  15.2340000  72.4250000  78.6470000  16.9450000
  70.0880000  78.0030000  13.7090000  65.9640000  74.6590000  24.3230000
  68.1840000  75.7210000  24.0590000  69.9620000  76.6040000  23.6500000
  72.0850000  78.8120000  14.6840000  66.1620000  74.5620000  25.6590000
  65.1540000  74.3350000  23.9480000  68.3480000  75.5960000  25.4810000
  67.3690000  75.0450000  26.2430000  65.4930000  74.1700000  26.2080000
  69.1480000  75.9020000  25.8930000  67.4900000  74.9800000  27.1840000
  69.0760000  79.8540000  33.0920000  68.9200000  79.9730000  31.7000000
  68.0950000  79.2970000  33.9230000  70.3070000  80.3420000  33.6960000
  68.1180000  79.6560000  31.3000000  69.8960000  80.5390000  30.8900000
  67.2810000  78.9790000  33.5500000  68.2740000  79.1950000  35.3100000
  71.2990000  80.9130000  32.8640000  70.4860000  80.2400000  35.0840000
  71.1200000  81.0140000  31.4890000  69.7320000  80.6640000  29.4680000
  67.2820000  78.6230000  36.1420000  69.5050000  79.6830000  35.9140000
  72.1040000  81.2350000  33.2530000  71.3000000  80.5570000  35.4560000
  72.1160000  81.6000000  30.6260000  68.9320000  80.3570000  29.0560000
  70.7110000  81.2150000  28.7060000  67.4610000  78.5220000  37.5170000
  66.4770000  78.3020000  35.7530000  69.6620000  79.5630000  37.3060000
  71.9180000  81.6980000  29.2910000  72.9260000  81.9240000  31.0020000
  70.5900000  81.2800000  27.7660000  66.4650000  77.9360000  38.3800000
  68.6860000  78.9980000  38.1160000  70.4630000  79.8810000  37.7070000
  72.5870000  82.0890000  28.7410000  66.6630000  77.8390000  39.7150000
  65.6550000  77.6120000  38.0050000  68.8490000  78.8730000  39.5380000
  67.8700000  78.3210000  40.3000000  65.9950000  77.4470000  40.2650000
  69.6490000  79.1790000  39.9500000  67.9920000  78.2570000  41.2410000
  69.5770000  83.1310000  47.1490000  69.4210000  83.2500000  45.7570000
  68.5960000  82.5730000  47.9790000  70.8080000  83.6190000  47.7530000
  68.6200000  82.9320000  45.3560000  70.3970000  83.8150000  44.9470000
  67.7830000  82.2560000  47.6070000  68.7760000  82.4710000  49.3670000
  71.8000000  84.1900000  46.9210000  70.9870000  83.5170000  49.1400000
  71.6210000  84.2910000  45.5460000  70.2330000  83.9410000  43.5250000
  67.7840000  81.9000000  50.1990000  70.0060000  82.9590000  49.9710000
  72.6050000  84.5110000  47.3100000  71.8010000  83.8340000  49.5130000
  72.6170000  84.8770000  44.6830000  69.4330000  83.6340000  43.1130000
  71.2120000  84.4920000  42.7630000  67.9620000  81.7990000  51.5740000
  66.9780000  81.5790000  49.8100000  70.1630000  82.8400000  51.3630000
  72.4190000  84.9740000  43.3480000  73.4270000  85.2010000  45.0580000
  71.0910000  84.5570000  41.8220000  66.9660000  81.2130000  52.4370000
  69.1870000  82.2750000  52.1730000  70.9640000  83.1580000  51.7630000
  73.0880000  85.3660000  42.7980000  67.1640000  81.1160000  53.7720000
  66.1560000  80.8890000  52.0610000  69.3510000  82.1490000  53.5950000
  68.3720000  81.5980000  54.3570000  66.4960000  80.7240000  54.3220000
  70.1500000  82.4560000  54.0070000  68.4930000  81.5330000  55.2970000
  70.0790000  86.4080000  61.2050000  69.9220000  86.5270000  59.8140000
  69.0970000  85.8500000  62.0360000  71.3090000  86.8950000  61.8100000
  69.1210000  86.2090000  59.4130000  70.8980000  87.0920000  59.0040000
  68.2840000  85.5330000  61.6640000  69.2770000  85.7480000  63.4240000
  72.3010000  87.4670000  60.9780000  71.4890000  86.7940000  63.1970000
  72.1230000  87.5680000  59.6030000  70.7340000  87.2170000  57.5820000
  68.2850000  85.1770000  64.2560000  70.5080000  86.2360000  64.0280000
  73.1070000  87.7880000  61.3670000  72.3020000  87.1110000  63.5700000
  73.1190000  88.1540000  58.7400000  69.9340000  86.9110000  57.1700000
  71.7130000  87.7690000  56.8200000  68.4640000  85.0760000  65.6300000
  67.4800000  84.8560000  63.8660000  70.6640000  86.1170000  65.4200000
  72.9210000  88.2510000  57.4040000  73.9280000  88.4780000  59.1150000
  71.5920000  87.8330000  55.8790000  67.4680000  84.4900000  66.4940000
  69.6880000  85.5520000  66.2290000  71.4650000  86.4340000  65.8200000
  73.5890000  88.6430000  56.8550000  67.6660000  84.3930000  67.8290000
  66.6580000  84.1660000  66.1180000  69.8520000  85.4260000  67.6520000
  68.8730000  84.8750000  68.4140000  66.9970000  84.0010000  68.3790000
  70.6520000  85.7330000  68.0640000  68.9940000  84.8100000  69.3540000
  71.0090000  89.5130000  78.0850000  71.1650000  89.3940000  79.4760000
  71.9900000  90.0700000  77.2540000  69.7780000  89.0250000  77.4800000
  71.9670000  89.7110000  79.8770000  70.1890000  88.8280000  80.2860000
  72.8040000  90.3880000  77.6270000  71.8110000  90.1720000  75.8670000
  68.7860000  88.4540000  78.3130000  69.5990000  89.1270000  76.0930000
  68.9650000  88.3520000  79.6870000  70.3530000  88.7030000  81.7090000
  72.8030000  90.7440000  75.0350000  70.5800000  89.6840000  75.2620000
  67.9810000  88.1320000  77.9230000  68.7850000  88.8100000  75.7200000
  67.9690000  87.7670000  80.5500000  71.1530000  89.0090000  82.1210000
  69.3740000  88.1520000  82.4710000  72.6240000  90.8450000  73.6600000
  73.6080000  91.0650000  75.4240000  70.4230000  89.8040000  73.8710000
  68.1670000  87.6690000  81.8860000  67.1590000  87.4430000  80.1750000
  69.4950000  88.0870000  83.4110000  73.6200000  91.4310000  72.7970000
  71.3990000  90.3690000  73.0610000  69.6220000  89.4860000  73.4700000
  67.4980000  87.2780000  82.4350000  73.4220000  91.5280000  71.4610000
  74.4300000  91.7550000  73.1720000  71.2360000  90.4940000  71.6380000
  72.2140000  91.0450000  70.8770000  74.0900000  91.9200000  70.9120000
  70.4360000  90.1880000  71.2270000  72.0930000  91.1100000  69.9360000
  71.5100000  92.7900000  92.1420000  71.6670000  92.6700000  93.5330000
  72.4910000  93.3470000  91.3110000  70.2790000  92.3020000  91.5370000
  72.4680000  92.9880000  93.9340000  70.6910000  92.1050000  94.3430000
  73.3050000  93.6640000  91.6830000  72.3120000  93.4490000  89.9230000
  69.2870000  91.7300000  92.3690000  70.1000000  92.4040000  90.1500000
  69.4660000  91.6290000  93.7440000  70.8540000  91.9800000  95.7650000
  73.3040000  94.0210000  89.0910000  71.0810000  92.9610000  89.3190000
  68.4820000  91.4090000  91.9800000  69.2860000  92.0870000  89.7770000
  68.4700000  91.0430000  94.6070000  71.6540000  92.2860000  96.1770000
  69.8750000  91.4290000  96.5270000  73.1250000  94.1220000  87.7170000
  74.1090000  94.3420000  89.4810000  70.9250000  93.0810000  87.9270000
  68.6680000  90.9460000  95.9430000  67.6600000  90.7190000  94.2320000
  69.9970000  91.3640000  97.4680000  74.1210000  94.7080000  86.8530000
  71.9010000  93.6460000  87.1180000  70.1230000  92.7630000  87.5270000
  68.0000000  90.5540000  96.4920000  73.9230000  94.8050000  85.5180000
  74.9310000  95.0320000  87.2290000  71.7370000  93.7710000  85.6950000
  72.7160000  94.3220000  84.9330000  74.5920000  95.1970000  84.9680000
  70.9370000  93.4650000  85.2830000  72.5950000  94.3870000  83.9930000
  69.3110000  84.2560000  19.0350000  69.1540000  84.3750000  17.6430000
  68.3300000  83.6980000  19.8660000  70.5420000  84.7440000  19.6390000
  68.3530000  84.0570000  17.2430000  70.1300000  84.9400000  16.8340000
  67.5160000  83.3810000  19.4930000  68.5090000  83.5960000  21.2530000
  71.5340000  85.3150000  18.8070000  70.7210000  84.6420000  21.0270000
  71.3550000  85.4160000  17.4320000  69.9670000  85.0660000  15.4110000
  67.5170000  83.0250000  22.0850000  69.7400000  84.0840000  21.8580000
  72.3390000  85.6360000  19.1970000  71.5350000  84.9590000  21.3990000
  72.3510000  86.0020000  16.5690000  69.1670000  84.7590000  14.9990000
  70.9460000  85.6170000  14.6490000  67.6960000  82.9240000  23.4600000
  66.7120000  82.7040000  21.6960000  69.8960000  83.9650000  23.2490000
  72.1530000  86.0990000  15.2340000  73.1610000  86.3260000  16.9450000
  70.8240000  85.6820000  13.7090000  66.7000000  82.3380000  24.3230000
  68.9200000  83.4000000  24.0590000  70.6980000  84.2830000  23.6500000
  72.8210000  86.4910000  14.6840000  66.8980000  82.2410000  25.6590000
  65.8900000  82.0140000  23.9480000  69.0840000  83.2740000  25.4810000
  68.1050000  82.7230000  26.2430000  66.2290000  81.8490000  26.2080000
  69.8840000  83.5810000  25.8930000  68.2260000  82.6580000  27.1840000
  69.8120000  87.5320000  33.0920000  69.6560000  87.6520000  31.7000000
  68.8310000  86.9750000  33.9230000  71.0430000  88.0200000  33.6960000
  68.8540000  87.3340000  31.3000000  70.6320000  88.2170000  30.8900000
  68.0170000  86.6580000  33.5500000  69.0100000  86.8730000  35.3100000
  72.0350000  88.5920000  32.8640000  71.2220000  87.9180000  35.0840000
  71.8560000  88.6930000  31.4890000  70.4680000  88.3420000  29.4680000
  68.0180000  86.3020000  36.1420000  70.2410000  87.3610000  35.9140000
  72.8400000  88.9130000  33.2530000  72.0360000  88.2360000  35.4560000
  72.8520000  89.2790000  30.6260000  69.6680000  88.0360000  29.0560000
  71.4470000  88.8940000  28.7060000  68.1970000  86.2010000  37.5170000
  67.2130000  85.9800000  35.7530000  70.3980000  87.2420000  37.3060000
  72.6540000  89.3760000  29.2910000  73.6620000  89.6030000  31.0020000
  71.3260000  88.9580000  27.7660000  67.2010000  85.6150000  38.3800000
  69.4220000  86.6760000  38.1160000  71.1990000  87.5590000  37.7070000
  73.3230000  89.7680000  28.7410000  67.3990000  85.5170000  39.7150000
  66.3910000  85.2910000  38.0050000  69.5860000  86.5510000  39.5380000
  68.6070000  86.0000000  40.3000000  66.7310000  85.1260000  40.2650000
  70.3850000  86.8580000  39.9500000  68.7280000  85.9350000  41.2410000
  71.2440000  93.9150000  64.0280000  71.4000000  93.7950000  65.4200000
  72.2250000  94.4720000  63.1970000  70.0130000  93.4270000  63.4240000
  72.2020000  94.1130000  65.8200000  70.4240000  93.2300000  66.2290000
  73.0380000  94.7890000  63.5700000  72.0450000  94.5740000  61.8100000
  69.0210000  92.8550000  64.2560000  69.8340000  93.5290000  62.0360000
  69.2000000  92.7540000  65.6300000  70.5880000  93.1050000  67.6520000
  73.0370000  95.1460000  60.9780000  70.8150000  94.0860000  61.2050000
  68.2160000  92.5340000  63.8660000  69.0200000  93.2120000  61.6640000
  68.2040000  92.1680000  66.4940000  71.3880000  93.4110000  68.0640000
  69.6090000  92.5540000  68.4140000  72.8590000  95.2470000  59.6030000
  73.8430000  95.4670000  61.3670000  70.6580000  94.2060000  59.8140000
  68.4020000  92.0710000  67.8290000  67.3940000  91.8440000  66.1180000
  69.7300000  92.4890000  69.3540000  73.8550000  95.8330000  58.7400000
  71.6340000  94.7710000  59.0040000  69.8570000  93.8880000  59.4130000
  67.7330000  91.6790000  68.3790000  73.6570000  95.9300000  57.4040000
  74.6650000  96.1570000  59.1150000  71.4700000  94.8960000  57.5820000
  72.4490000  95.4470000  56.8200000  74.3250000  96.3220000  56.8550000
  70.6710000  94.5900000  57.1700000  72.3280000  95.5120000  55.8790000
  71.3160000  97.3630000  75.2620000  71.1600000  97.4820000  73.8710000
  70.3350000  96.8060000  76.0930000  72.5470000  97.8510000  75.8670000
  70.3580000  97.1650000  73.4700000  72.1350000  98.0480000  73.0610000
  69.5210000  96.4880000  75.7200000  70.5140000  96.7040000  77.4800000
  73.5390000  98.4220000  75.0350000  72.7260000  97.7490000  77.2540000
  73.3600000  98.5240000  73.6600000  71.9720000  98.1730000  71.6380000
  69.5220000  96.1320000  78.3130000  71.7450000  97.1920000  78.0850000
  74.3440000  98.7440000  75.4240000  73.5400000  98.0660000  77.6270000
  74.3560000  99.1090000  72.7970000  71.1720000  97.8670000  71.2270000
  72.9510000  98.7240000  70.8770000  69.7010000  96.0310000  79.6870000
  68.7170000  95.8110000  77.9230000  71.9010000  97.0720000  79.4760000
  74.1580000  99.2070000  71.4610000  75.1660000  99.4330000  73.1720000
  72.8290000  98.7890000  69.9360000  68.7050000  95.4450000  80.5500000
  70.9250000  96.5070000  80.2860000  72.7030000  97.3900000  79.8770000
  74.8260000  99.5980000  70.9120000  68.9030000  95.3480000  81.8860000
  67.8950000  95.1210000  80.1750000  71.0890000  96.3820000  81.7090000
  70.1100000  95.8310000  82.4710000  68.2340000  94.9560000  82.4350000
  71.8890000  96.6880000  82.1210000  70.2310000  95.7660000  83.4110000
  71.8170000 100.6400000  89.3190000  71.6610000 100.7590000  87.9270000
  70.8360000 100.0820000  90.1500000  73.0480000 101.1280000  89.9230000
  70.8590000 100.4420000  87.5270000  72.6370000 101.3240000  87.1180000
  70.0230000  99.7650000  89.7770000  71.0150000  99.9810000  91.5370000
  74.0400000 101.6990000  89.0910000  73.2270000 101.0260000  91.3110000
  73.8610000 101.8000000  87.7170000  72.4730000 101.4500000  85.6950000
  70.0240000  99.4090000  92.3690000  72.2460000 100.4680000  92.1420000
  74.8450000 102.0200000  89.4810000  74.0410000 101.3430000  91.6830000
  74.8570000 102.3860000  86.8530000  71.6730000 101.1430000  85.2830000
  73.4520000 102.0010000  84.9330000  70.2020000  99.3080000  93.7440000
  69.2180000  99.0880000  91.9800000  72.4030000 100.3490000  93.5330000
  74.6590000 102.4830000  85.5180000  75.6670000 102.7100000  87.2290000
  73.3310000 102.0660000  83.9930000  69.2060000  98.7220000  94.6070000
  71.4270000  99.7840000  94.3430000  73.2040000 100.6670000  93.9340000
  75.3280000 102.8750000  84.9680000  69.4040000  98.6250000  95.9430000
  68.3960000  98.3980000  94.2320000  71.5910000  99.6590000  95.7650000
  70.6120000  99.1070000  96.5270000  68.7360000  98.2330000  96.4920000
  72.3900000  99.9650000  96.1770000  70.7330000  99.0430000  97.4680000
  70.3130000  90.8090000  47.1490000  70.1570000  90.9290000  45.7570000
  69.3320000  90.2520000  47.9790000  71.5440000  91.2970000  47.7530000
  69.3560000  90.6110000  45.3560000  71.1330000  91.4940000  44.9470000
  68.5190000  89.9350000  47.6070000  69.5120000  90.1500000  49.3670000
  72.5360000  91.8690000  46.9210000  71.7240000  91.1950000  49.1400000
  72.3570000  91.9700000  45.5460000  70.9690000  91.6190000  43.5250000
  68.5200000  89.5780000  50.1990000  70.7420000  90.6380000  49.9710000
  73.3410000  92.1900000  47.3100000  72.5370000  91.5120000  49.5130000
  73.3530000  92.5560000  44.6830000  70.1690000  91.3130000  43.1130000
  71.9480000  92.1700000  42.7630000  68.6980000  89.4770000  51.5740000
  67.7140000  89.2570000  49.8100000  70.8990000  90.5190000  51.3630000
  73.1560000  92.6530000  43.3480000  74.1630000  92.8800000  45.0580000
  71.8270000  92.2350000  41.8220000  67.7020000  88.8920000  52.4370000
  69.9230000  89.9530000  52.1730000  71.7000000  90.8360000  51.7630000
  73.8240000  93.0450000  42.7980000  67.9000000  88.7940000  53.7720000
  66.8930000  88.5680000  52.0610000  70.0870000  89.8280000  53.5950000
  69.1080000  89.2770000  54.3570000  67.2320000  88.4030000  54.3220000
  70.8870000  90.1340000  54.0070000  69.2290000  89.2120000  55.2970000
  61.4480000   4.1930000   4.9780000  61.2920000   4.3120000   3.5870000
  60.4670000   3.6360000   5.8090000  62.6790000   4.6810000   5.5830000
  60.4910000   3.9950000   3.1860000  62.2680000   4.8780000   2.7770000
  59.6540000   3.3180000   5.4360000  60.6470000   3.5340000   7.1960000
  63.6710000   5.2520000   4.7500000  62.8590000   4.5790000   6.9700000
  63.4930000   5.3530000   3.3760000  62.1040000   5.0030000   1.3540000
  59.6550000   2.9620000   8.0280000  61.8770000   4.0220000   7.8010000
  64.4760000   5.5730000   5.1400000  63.6720000   4.8960000   7.3430000
  64.4890000   5.9390000   2.5130000  61.3040000   4.6960000   0.9420000
  63.0830000   5.5540000   0.5920000  59.8330000   2.8610000   9.4030000
  58.8490000   2.6410000   7.6390000  62.0340000   3.9020000   9.1920000
  64.2910000   6.0370000   1.1770000  65.2980000   6.2630000   2.8880000
  62.9620000   5.6190000  -0.3480000  58.8370000   2.2750000  10.2660000
  61.0580000   3.3370000  10.0020000  62.8350000   4.2200000   9.5930000
  64.9590000   6.4280000   0.6280000  59.0350000   2.1780000  11.6020000
  58.0280000   1.9510000   9.8910000  61.2220000   3.2120000  11.4250000
  60.2430000   2.6600000  12.1860000  58.3670000   1.7860000  12.1510000
  62.0220000   3.5180000  11.8360000  60.3640000   2.5960000  13.1270000
  62.9520000  14.0230000  47.1490000  62.7960000  14.1430000  45.7570000
  61.9710000  13.4660000  47.9790000  64.1830000  14.5110000  47.7530000
  61.9940000  13.8250000  45.3560000  63.7720000  14.7080000  44.9470000
  61.1580000  13.1490000  47.6070000  62.1500000  13.3640000  49.3670000
  65.1750000  15.0830000  46.9210000  64.3620000  14.4090000  49.1400000
  64.9960000  15.1840000  45.5460000  63.6080000  14.8330000  43.5250000
  61.1590000  12.7920000  50.1990000  63.3810000  13.8520000  49.9710000
  65.9800000  15.4040000  47.3100000  65.1760000  14.7270000  49.5130000
  65.9920000  15.7700000  44.6830000  62.8080000  14.5270000  43.1130000
  64.5870000  15.3840000  42.7630000  61.3370000  12.6910000  51.5740000
  60.3530000  12.4710000  49.8100000  63.5380000  13.7330000  51.3630000
  65.7940000  15.8670000  43.3480000  66.8020000  16.0940000  45.0580000
  64.4660000  15.4490000  41.8220000  60.3410000  12.1060000  52.4370000
  62.5620000  13.1670000  52.1730000  64.3390000  14.0500000  51.7630000
  66.4630000  16.2590000  42.7980000  60.5390000  12.0080000  53.7720000
  59.5310000  11.7820000  52.0610000  62.7260000  13.0420000  53.5950000
  61.7470000  12.4910000  54.3570000  59.8710000  11.6170000  54.3220000
  63.5250000  13.3480000  54.0070000  61.8680000  12.4260000  55.2970000
  62.6860000  15.1480000  19.0350000  62.5290000  15.2680000  17.6430000
  61.7050000  14.5910000  19.8660000  63.9170000  15.6360000  19.6390000
  61.7280000  14.9500000  17.2430000  63.5050000  15.8330000  16.8340000
  60.8910000  14.2740000  19.4930000  61.8840000  14.4890000  21.2530000
  64.9090000  16.2080000  18.8070000  64.0960000  15.5340000  21.0270000
  64.7300000  16.3090000  17.4320000  63.3420000  15.9580000  15.4110000
  60.8920000  13.9170000  22.0850000  63.1150000  14.9770000  21.8580000
  65.7140000  16.5290000  19.1970000  64.9100000  15.8510000  21.3990000
  65.7260000  16.8950000  16.5690000  62.5420000  15.6520000  14.9990000
  64.3200000  16.5090000  14.6490000  61.0710000  13.8160000  23.4600000
  60.0870000  13.5960000  21.6960000  63.2710000  14.8580000  23.2490000
  65.5280000  16.9920000  15.2340000  66.5360000  17.2190000  16.9450000
  64.1990000  16.5740000  13.7090000  60.0750000  13.2300000  24.3230000
  62.2950000  14.2920000  24.0590000  64.0730000  15.1750000  23.6500000
  66.1960000  17.3840000  14.6840000  60.2730000  13.1330000  25.6590000
  59.2650000  12.9060000  23.9480000  62.4590000  14.1670000  25.4810000
  61.4800000  13.6160000  26.2430000  59.6040000  12.7420000  26.2080000
  63.2590000  14.4730000  25.8930000  61.6010000  13.5510000  27.1840000
  63.6880000  21.7020000  47.1490000  63.5320000  21.8210000  45.7570000
  62.7070000  21.1450000  47.9790000  64.9190000  22.1900000  47.7530000
  62.7310000  21.5040000  45.3560000  64.5080000  22.3870000  44.9470000
  61.8940000  20.8270000  47.6070000  62.8870000  21.0430000  49.3670000
  65.9110000  22.7610000  46.9210000  65.0990000  22.0880000  49.1400000
  65.7320000  22.8630000  45.5460000  64.3440000  22.5120000  43.5250000
  61.8950000  20.4710000  50.1990000  64.1170000  21.5310000  49.9710000
  66.7160000  23.0830000  47.3100000  65.9120000  22.4050000  49.5130000
  66.7280000  23.4480000  44.6830000  63.5440000  22.2050000  43.1130000
  65.3230000  23.0630000  42.7630000  62.0730000  20.3700000  51.5740000
  61.0890000  20.1500000  49.8100000  64.2740000  21.4110000  51.3630000
  66.5300000  23.5460000  43.3480000  67.5380000  23.7720000  45.0580000
  65.2020000  23.1280000  41.8220000  61.0770000  19.7840000  52.4370000
  63.2980000  20.8460000  52.1730000  65.0750000  21.7290000  51.7630000
  67.1990000  23.9370000  42.7980000  61.2750000  19.6870000  53.7720000
  60.2680000  19.4600000  52.0610000  63.4620000  20.7210000  53.5950000
  62.4830000  20.1700000  54.3570000  60.6070000  19.2950000  54.3220000
  64.2620000  21.0270000  54.0070000  62.6040000  20.1050000  55.2970000
  62.1850000  11.8710000   4.9780000  62.0280000  11.9910000   3.5870000
  61.2030000  11.3140000   5.8090000  63.4150000  12.3590000   5.5830000
  61.2270000  11.6730000   3.1860000  63.0040000  12.5560000   2.7770000
  60.3900000  10.9970000   5.4360000  61.3830000  11.2120000   7.1960000
  64.4070000  12.9310000   4.7500000  63.5950000  12.2570000   6.9700000
  64.2290000  13.0320000   3.3760000  62.8400000  12.6810000   1.3540000
  60.3910000  10.6410000   8.0280000  62.6140000  11.7000000   7.8010000
  65.2130000  13.2520000   5.1400000  64.4080000  12.5750000   7.3430000
  65.2250000  13.6180000   2.5130000  62.0400000  12.3750000   0.9420000
  63.8190000  13.2320000   0.5920000  60.5700000  10.5390000   9.4030000
  59.5860000  10.3190000   7.6390000  62.7700000  11.5810000   9.1920000
  65.0270000  13.7150000   1.1770000  66.0340000  13.9420000   2.8880000
  63.6980000  13.2970000  -0.3480000  59.5740000   9.9540000  10.2660000
  61.7940000  11.0150000  10.0020000  63.5710000  11.8980000   9.5930000
  65.6950000  14.1070000   0.6280000  59.7720000   9.8560000  11.6020000
  58.7640000   9.6300000   9.8910000  61.9580000  10.8900000  11.4250000
  60.9790000  10.3390000  12.1860000  59.1030000   9.4650000  12.1510000
  62.7580000  11.1970000  11.8360000  61.1000000  10.2740000  13.1270000
  65.1920000  31.5320000  89.3190000  65.0360000  31.6520000  87.9270000
  64.2110000  30.9750000  90.1500000  66.4230000  32.0200000  89.9230000
  64.2340000  31.3340000  87.5270000  66.0120000  32.2170000  87.1180000
  63.3970000  30.6580000  89.7770000  64.3900000  30.8730000  91.5370000
  67.4150000  32.5920000  89.0910000  66.6020000  31.9180000  91.3110000
  67.2360000  32.6930000  87.7170000  65.8480000  32.3420000  85.6950000
  63.3980000  30.3020000  92.3690000  65.6210000  31.3610000  92.1420000
  68.2200000  32.9130000  89.4810000  67.4160000  32.2360000  91.6830000
  68.2320000  33.2790000  86.8530000  65.0480000  32.0360000  85.2830000
  66.8270000  32.8930000  84.9330000  63.5770000  30.2000000  93.7440000
  62.5930000  29.9800000  91.9800000  65.7780000  31.2420000  93.5330000
  68.0340000  33.3760000  85.5180000  69.0420000  33.6030000  87.2290000
  66.7060000  32.9580000  83.9930000  62.5810000  29.6150000  94.6070000
  64.8020000  30.6760000  94.3430000  66.5790000  31.5590000  93.9340000
  68.7030000  33.7680000  84.9680000  62.7790000  29.5170000  95.9430000
  61.7710000  29.2910000  94.2320000  64.9650000  30.5510000  95.7650000
  63.9870000  30.0000000  96.5270000  62.1110000  29.1260000  96.4920000
  65.7650000  30.8580000  96.1770000  64.1080000  29.9350000  97.4680000
  63.4220000  22.8270000  19.0350000  63.2660000  22.9460000  17.6430000
  62.4410000  22.2700000  19.8660000  64.6530000  23.3150000  19.6390000
  62.4640000  22.6290000  17.2430000  64.2410000  23.5120000  16.8340000
  61.6270000  21.9520000  19.4930000  62.6200000  22.1680000  21.2530000
  65.6450000  23.8860000  18.8070000  64.8320000  23.2130000  21.0270000
  65.4660000  23.9870000  17.4320000  64.0780000  23.6370000  15.4110000
  61.6280000  21.5960000  22.0850000  63.8510000  22.6560000  21.8580000
  66.4500000  24.2080000  19.1970000  65.6460000  23.5300000  21.3990000
  66.4620000  24.5730000  16.5690000  63.2780000  23.3300000  14.9990000
  65.0570000  24.1880000  14.6490000  61.8070000  21.4950000  23.4600000
  60.8230000  21.2750000  21.6960000  64.0070000  22.5360000  23.2490000
  66.2640000  24.6710000  15.2340000  67.2720000  24.8970000  16.9450000
  64.9350000  24.2530000  13.7090000  60.8110000  20.9090000  24.3230000
  63.0310000  21.9710000  24.0590000  64.8090000  22.8540000  23.6500000
  66.9320000  25.0620000  14.6840000  61.0090000  20.8120000  25.6590000
  60.0010000  20.5850000  23.9480000  63.1950000  21.8460000  25.4810000
  62.2160000  21.2940000  26.2430000  60.3400000  20.4200000  26.2080000
  63.9950000  22.1520000  25.8930000  62.3370000  21.2300000  27.1840000
  66.3570000  39.0400000  92.1420000  66.5140000  38.9200000  93.5330000
  67.3380000  39.5970000  91.3110000  65.1260000  38.5520000  91.5370000
  67.3150000  39.2380000  93.9340000  65.5380000  38.3550000  94.3430000
  68.1520000  39.9140000  91.6830000  67.1590000  39.6990000  89.9230000
  64.1350000  37.9800000  92.3690000  64.9470000  38.6540000  90.1500000
  64.3130000  37.8790000  93.7440000  65.7020000  38.2300000  95.7650000
  68.1510000  40.2710000  89.0910000  65.9280000  39.2110000  89.3190000
  63.3290000  37.6590000  91.9800000  64.1340000  38.3370000  89.7770000
  63.3170000  37.2930000  94.6070000  66.5010000  38.5360000  96.1770000
  64.7230000  37.6790000  96.5270000  67.9720000  40.3720000  87.7170000
  68.9560000  40.5920000  89.4810000  65.7720000  39.3300000  87.9270000
  63.5150000  37.1960000  95.9430000  62.5070000  36.9690000  94.2320000
  64.8440000  37.6140000  97.4680000  68.9680000  40.9570000  86.8530000
  66.7480000  39.8960000  87.1180000  64.9700000  39.0130000  87.5270000
  62.8470000  36.8040000  96.4920000  68.7700000  41.0550000  85.5180000
  69.7780000  41.2810000  87.2290000  66.5840000  40.0210000  85.6950000
  67.5630000  40.5720000  84.9330000  69.4390000  41.4460000  84.9680000
  65.7840000  39.7150000  85.2830000  67.4420000  40.6370000  83.9930000
  63.6570000  27.2290000   4.9780000  63.5000000  27.3480000   3.5870000
  62.6760000  26.6710000   5.8090000  64.8880000  27.7170000   5.5830000
  62.6990000  27.0300000   3.1860000  64.4760000  27.9130000   2.7770000
  61.8620000  26.3540000   5.4360000  62.8550000  26.5690000   7.1960000
  65.8800000  28.2880000   4.7500000  65.0670000  27.6150000   6.9700000
  65.7010000  28.3890000   3.3760000  64.3120000  28.0390000   1.3540000
  61.8630000  25.9980000   8.0280000  64.0860000  27.0570000   7.8010000
  66.6850000  28.6090000   5.1400000  65.8810000  27.9320000   7.3430000
  66.6970000  28.9750000   2.5130000  63.5130000  27.7320000   0.9420000
  65.2910000  28.5900000   0.5920000  62.0420000  25.8970000   9.4030000
  61.0580000  25.6770000   7.6390000  64.2420000  26.9380000   9.1920000
  66.4990000  29.0720000   1.1770000  67.5070000  29.2990000   2.8880000
  65.1700000  28.6550000  -0.3480000  61.0460000  25.3110000  10.2660000
  63.2660000  26.3730000  10.0020000  65.0440000  27.2550000   9.5930000
  67.1670000  29.4640000   0.6280000  61.2440000  25.2140000  11.6020000
  60.2360000  24.9870000   9.8910000  63.4300000  26.2470000  11.4250000
  62.4510000  25.6960000  12.1860000  60.5750000  24.8220000  12.1510000
  64.2300000  26.5540000  11.8360000  62.5720000  25.6310000  13.1270000
  66.1630000  43.6130000  75.2620000  66.0070000  43.7320000  73.8710000
  65.1820000  43.0550000  76.0930000  67.3940000  44.1010000  75.8670000
  65.2050000  43.4150000  73.4700000  66.9830000  44.2970000  73.0610000
  64.3680000  42.7380000  75.7200000  65.3610000  42.9530000  77.4800000
  68.3860000  44.6720000  75.0350000  67.5730000  43.9990000  77.2540000
  68.2070000  44.7730000  73.6600000  66.8190000  44.4230000  71.6380000
  64.3690000  42.3820000  78.3130000  66.5920000  43.4410000  78.0850000
  69.1910000  44.9930000  75.4240000  68.3870000  44.3160000  77.6270000
  69.2030000  45.3590000  72.7970000  66.0190000  44.1160000  71.2270000
  67.7980000  44.9740000  70.8770000  64.5480000  42.2810000  79.6870000
  63.5640000  42.0610000  77.9230000  66.7490000  43.3220000  79.4760000
  69.0050000  45.4560000  71.4610000  70.0130000  45.6830000  73.1720000
  67.6770000  45.0390000  69.9360000  63.5520000  41.6950000  80.5500000
  65.7730000  42.7570000  80.2860000  67.5500000  43.6400000  79.8770000
  69.6740000  45.8480000  70.9120000  63.7500000  41.5980000  81.8860000
  62.7420000  41.3710000  80.1750000  65.9360000  42.6320000  81.7090000
  64.9580000  42.0800000  82.4710000  63.0820000  41.2060000  82.4350000
  66.7360000  42.9380000  82.1210000  65.0790000  42.0160000  83.4110000
  65.8970000  44.7380000  47.1490000  65.7400000  44.8570000  45.7570000
  64.9160000  44.1800000  47.9790000  67.1280000  45.2260000  47.7530000
  64.9390000  44.5400000  45.3560000  66.7160000  45.4220000  44.9470000
  64.1020000  43.8630000  47.6070000  65.0950000  44.0780000  49.3670000
  68.1190000  45.7970000  46.9210000  67.3070000  45.1240000  49.1400000
  67.9410000  45.8980000  45.5460000  66.5520000  45.5480000  43.5250000
  64.1030000  43.5070000  50.1990000  66.3260000  44.5660000  49.9710000
  68.9250000  46.1180000  47.3100000  68.1200000  45.4410000  49.5130000
  68.9370000  46.4840000  44.6830000  65.7530000  45.2410000  43.1130000
  67.5310000  46.0990000  42.7630000  64.2820000  43.4060000  51.5740000
  63.2980000  43.1860000  49.8100000  66.4820000  44.4470000  51.3630000
  68.7390000  46.5810000  43.3480000  69.7470000  46.8080000  45.0580000
  67.4100000  46.1640000  41.8220000  63.2860000  42.8200000  52.4370000
  65.5060000  43.8820000  52.1730000  67.2840000  44.7650000  51.7630000
  69.4070000  46.9730000  42.7980000  63.4840000  42.7230000  53.7720000
  62.4760000  42.4960000  52.0610000  65.6700000  43.7560000  53.5950000
  64.6910000  43.2050000  54.3570000  62.8150000  42.3310000  54.3220000
  66.4700000  44.0630000  54.0070000  64.8120000  43.1400000  55.2970000
  67.8300000  54.3970000  92.1420000  67.9860000  54.2770000  93.5330000
  68.8110000  54.9540000  91.3110000  66.5990000  53.9090000  91.5370000
  68.7870000  54.5950000  93.9340000  67.0100000  53.7120000  94.3430000
  69.6240000  55.2710000  91.6830000  68.6310000  55.0560000  89.9230000
  65.6070000  53.3370000  92.3690000  66.4190000  54.0110000  90.1500000
  65.7850000  53.2360000  93.7440000  67.1740000  53.5870000  95.7650000
  69.6230000  55.6280000  89.0910000  67.4000000  54.5680000  89.3190000
  64.8010000  53.0160000  91.9800000  65.6060000  53.6940000  89.7770000
  64.7890000  52.6500000  94.6070000  67.9740000  53.8930000  96.1770000
  66.1950000  53.0360000  96.5270000  69.4450000  55.7290000  87.7170000
  70.4290000  55.9490000  89.4810000  67.2440000  54.6880000  87.9270000
  64.9870000  52.5530000  95.9430000  63.9800000  52.3260000  94.2320000
  66.3160000  52.9710000  97.4680000  70.4410000  56.3150000  86.8530000
  68.2200000  55.2530000  87.1180000  66.4430000  54.3700000  87.5270000
  64.3190000  52.1620000  96.4920000  70.2430000  56.4120000  85.5180000
  71.2500000  56.6390000  87.2290000  68.0560000  55.3780000  85.6950000
  69.0350000  55.9290000  84.9330000  70.9110000  56.8040000  84.9680000
  67.2560000  55.0720000  85.2830000  68.9140000  55.9940000  83.9930000
  67.1340000  55.6930000  61.2050000  66.9780000  55.8130000  59.8140000
  66.1530000  55.1360000  62.0360000  68.3650000  56.1810000  61.8100000
  66.1760000  55.4950000  59.4130000  67.9540000  56.3780000  59.0040000
  65.3390000  54.8190000  61.6640000  66.3320000  55.0340000  63.4240000
  69.3570000  56.7530000  60.9780000  68.5440000  56.0790000  63.1970000
  69.1780000  56.8540000  59.6030000  67.7900000  56.5030000  57.5820000
  65.3400000  54.4620000  64.2560000  67.5630000  55.5220000  64.0280000
  70.1620000  57.0740000  61.3670000  69.3580000  56.3960000  63.5700000
  70.1740000  57.4400000  58.7400000  66.9900000  56.1970000  57.1700000
  68.7690000  57.0540000  56.8200000  65.5190000  54.3610000  65.6300000
  64.5350000  54.1410000  63.8660000  67.7200000  55.4020000  65.4200000
  69.9760000  57.5370000  57.4040000  70.9840000  57.7640000  59.1150000
  68.6480000  57.1190000  55.8790000  64.5230000  53.7750000  66.4940000
  66.7440000  54.8370000  66.2290000  68.5210000  55.7200000  65.8200000
  70.6450000  57.9290000  56.8550000  64.7210000  53.6780000  67.8290000
  63.7130000  53.4510000  66.1180000  66.9070000  54.7120000  67.6520000
  65.9280000  54.1610000  68.4140000  64.0530000  53.2860000  68.3790000
  67.7070000  55.0180000  68.0640000  66.0500000  54.0960000  69.3540000
  67.0620000  52.2450000  49.9710000  67.2180000  52.1260000  51.3630000
  68.0430000  52.8020000  49.1400000  65.8310000  51.7570000  49.3670000
  68.0200000  52.4430000  51.7630000  66.2420000  51.5600000  52.1730000
  68.8570000  53.1200000  49.5130000  67.8640000  52.9040000  47.7530000
  64.8390000  51.1850000  50.1990000  65.6520000  51.8590000  47.9790000
  65.0180000  51.0840000  51.5740000  66.4060000  51.4350000  53.5950000
  68.8560000  53.4760000  46.9210000  66.6330000  52.4160000  47.1490000
  64.0340000  50.8640000  49.8100000  64.8380000  51.5420000  47.6070000
  64.0220000  50.4990000  52.4370000  67.2060000  51.7410000  54.0070000
  65.4270000  50.8840000  54.3570000  68.6770000  53.5770000  45.5460000
  69.6610000  53.7970000  47.3100000  66.4760000  52.5360000  45.7570000
  64.2200000  50.4010000  53.7720000  63.2120000  50.1750000  52.0610000
  65.5480000  50.8190000  55.2970000  69.6730000  54.1630000  44.6830000
  67.4520000  53.1010000  44.9470000  65.6750000  52.2180000  45.3560000
  63.5510000  50.0100000  54.3220000  69.4750000  54.2600000  43.3480000
  70.4830000  54.4870000  45.0580000  67.2890000  53.2260000  43.5250000
  68.2670000  53.7770000  42.7630000  70.1430000  54.6520000  42.7980000
  66.4890000  52.9200000  43.1130000  68.1460000  53.8420000  41.8220000
  68.0640000  58.7990000  78.0850000  68.2210000  58.6790000  79.4760000
  69.0460000  59.3560000  77.2540000  66.8340000  58.3110000  77.4800000
  69.0220000  58.9970000  79.8770000  67.2450000  58.1140000  80.2860000
  69.8590000  59.6730000  77.6270000  68.8660000  59.4580000  75.8670000
  65.8420000  57.7390000  78.3130000  66.6540000  58.4130000  76.0930000
  66.0200000  57.6380000  79.6870000  67.4090000  57.9890000  81.7090000
  69.8580000  60.0300000  75.0350000  67.6350000  58.9700000  75.2620000
  65.0360000  57.4180000  77.9230000  65.8410000  58.0950000  75.7200000
  65.0240000  57.0520000  80.5500000  68.2090000  58.2950000  82.1210000
  66.4300000  57.4380000  82.4710000  69.6790000  60.1310000  73.6600000
  70.6630000  60.3510000  75.4240000  67.4790000  59.0890000  73.8710000
  65.2220000  56.9550000  81.8860000  64.2150000  56.7280000  80.1750000
  66.5510000  57.3730000  83.4110000  70.6750000  60.7160000  72.7970000
  68.4550000  59.6550000  73.0610000  66.6780000  58.7720000  73.4700000
  64.5540000  56.5630000  82.4350000  70.4770000  60.8140000  71.4610000
  71.4850000  61.0400000  73.1720000  68.2910000  59.7800000  71.6380000
  69.2700000  60.3310000  70.8770000  71.1460000  61.2050000  70.9120000
  67.4910000  59.4740000  71.2270000  69.1490000  60.3960000  69.9360000
  65.8650000  50.2640000   4.9780000  65.7090000  50.3840000   3.5870000
  64.8840000  49.7070000   5.8090000  67.0960000  50.7520000   5.5830000
  64.9070000  50.0660000   3.1860000  66.6850000  50.9490000   2.7770000
  64.0710000  49.3900000   5.4360000  65.0630000  49.6050000   7.1960000
  68.0880000  51.3240000   4.7500000  67.2750000  50.6500000   6.9700000
  67.9090000  51.4250000   3.3760000  66.5210000  51.0740000   1.3540000
  64.0710000  49.0340000   8.0280000  66.2940000  50.0930000   7.8010000
  68.8930000  51.6450000   5.1400000  68.0890000  50.9680000   7.3430000
  68.9050000  52.0110000   2.5130000  65.7210000  50.7680000   0.9420000
  67.5000000  51.6250000   0.5920000  64.2500000  48.9320000   9.4030000
  63.2660000  48.7120000   7.6390000  66.4510000  49.9740000   9.1920000
  68.7070000  52.1080000   1.1770000  69.7150000  52.3350000   2.8880000
  67.3790000  51.6900000  -0.3480000  63.2540000  48.3470000  10.2660000
  65.4750000  49.4080000  10.0020000  67.2520000  50.2910000   9.5930000
  69.3760000  52.5000000   0.6280000  63.4520000  48.2490000  11.6020000
  62.4440000  48.0230000   9.8910000  65.6390000  49.2830000  11.4250000
  64.6600000  48.7320000  12.1860000  62.7840000  47.8580000  12.1510000
  66.4380000  49.5900000  11.8360000  64.7810000  48.6670000  13.1270000
  69.3020000  69.7540000  92.1420000  69.4580000  69.6350000  93.5330000
  70.2830000  70.3110000  91.3110000  68.0710000  69.2660000  91.5370000
  70.2600000  69.9520000  93.9340000  68.4820000  69.0690000  94.3430000
  71.0960000  70.6290000  91.6830000  70.1040000  70.4130000  89.9230000
  67.0790000  68.6950000  92.3690000  67.8920000  69.3680000  90.1500000
  67.2580000  68.5930000  93.7440000  68.6460000  68.9440000  95.7650000
  71.0950000  70.9850000  89.0910000  68.8730000  69.9250000  89.3190000
  66.2740000  68.3730000  91.9800000  67.0780000  69.0510000  89.7770000
  66.2620000  68.0080000  94.6070000  69.4460000  69.2510000  96.1770000
  67.6670000  68.3930000  96.5270000  70.9170000  71.0860000  87.7170000
  71.9010000  71.3060000  89.4810000  68.7160000  70.0450000  87.9270000
  66.4600000  67.9100000  95.9430000  65.4520000  67.6840000  94.2320000
  67.7880000  68.3280000  97.4680000  71.9130000  71.6720000  86.8530000
  69.6920000  70.6100000  87.1180000  67.9150000  69.7270000  87.5270000
  65.7910000  67.5190000  96.4920000  71.7150000  71.7690000  85.5180000
  72.7230000  71.9960000  87.2290000  69.5280000  70.7350000  85.6950000
  70.5070000  71.2860000  84.9330000  72.3830000  72.1610000  84.9680000
  68.7290000  70.4290000  85.2830000  70.3860000  71.3510000  83.9930000
  69.1080000  74.3270000  75.2620000  68.9510000  74.4470000  73.8710000
  68.1260000  73.7700000  76.0930000  70.3380000  74.8150000  75.8670000
  68.1500000  74.1290000  73.4700000  69.9270000  75.0120000  73.0610000
  67.3130000  73.4530000  75.7200000  68.3060000  73.6680000  77.4800000
  71.3300000  75.3870000  75.0350000  70.5180000  74.7130000  77.2540000
  71.1520000  75.4880000  73.6600000  69.7630000  75.1370000  71.6380000
  67.3140000  73.0960000  78.3130000  69.5370000  74.1560000  78.0850000
  72.1360000  75.7080000  75.4240000  71.3310000  75.0300000  77.6270000
  72.1480000  76.0740000  72.7970000  68.9630000  74.8310000  71.2270000
  70.7420000  75.6880000  70.8770000  67.4930000  72.9950000  79.6870000
  66.5090000  72.7750000  77.9230000  69.6930000  74.0360000  79.4760000
  71.9500000  76.1710000  71.4610000  72.9570000  76.3980000  73.1720000
  70.6210000  75.7530000  69.9360000  66.4970000  72.4090000  80.5500000
  68.7170000  73.4710000  80.2860000  70.4940000  74.3540000  79.8770000
  72.6180000  76.5630000  70.9120000  66.6950000  72.3120000  81.8860000
  65.6870000  72.0850000  80.1750000  68.8810000  73.3460000  81.7090000
  67.9020000  72.7950000  82.4710000  66.0260000  71.9200000  82.4350000
  69.6810000  73.6520000  82.1210000  68.0230000  72.7300000  83.4110000
  68.0740000  73.3000000   4.9780000  67.9170000  73.4200000   3.5870000
  67.0920000  72.7430000   5.8090000  69.3040000  73.7880000   5.5830000
  67.1160000  73.1020000   3.1860000  68.8930000  73.9850000   2.7770000
  66.2790000  72.4260000   5.4360000  67.2720000  72.6410000   7.1960000
  70.2960000  74.3600000   4.7500000  69.4840000  73.6860000   6.9700000
  70.1180000  74.4610000   3.3760000  68.7290000  74.1100000   1.3540000
  66.2800000  72.0690000   8.0280000  68.5030000  73.1290000   7.8010000
  71.1020000  74.6810000   5.1400000  70.2970000  74.0030000   7.3430000
  71.1140000  75.0470000   2.5130000  67.9290000  73.8040000   0.9420000
  69.7080000  74.6610000   0.5920000  66.4590000  71.9680000   9.4030000
  65.4750000  71.7480000   7.6390000  68.6590000  73.0090000   9.1920000
  70.9160000  75.1440000   1.1770000  71.9230000  75.3710000   2.8880000
  69.5870000  74.7260000  -0.3480000  65.4620000  71.3820000  10.2660000
  67.6830000  72.4440000  10.0020000  69.4600000  73.3270000   9.5930000
  71.5840000  75.5360000   0.6280000  65.6600000  71.2850000  11.6020000
  64.6530000  71.0580000   9.8910000  67.8470000  72.3190000  11.4250000
  66.8680000  71.7680000  12.1860000  64.9920000  70.8930000  12.1510000
  68.6470000  72.6250000  11.8360000  66.9890000  71.7030000  13.1270000
  69.2390000  80.8070000   7.8010000  69.3950000  80.6880000   9.1920000
  70.2200000  81.3650000   6.9700000  68.0080000  80.3200000   7.1960000
  70.1960000  81.0060000   9.5930000  68.4190000  80.1230000  10.0020000
  71.0330000  81.6820000   7.3430000  70.0400000  81.4670000   5.5830000
  67.0160000  79.7480000   8.0280000  67.8280000  80.4210000   5.8090000
  67.1950000  79.6470000   9.4030000  68.5830000  79.9980000  11.4250000
  71.0320000  82.0380000   4.7500000  68.8100000  80.9790000   4.9780000
  66.2110000  79.4270000   7.6390000  67.0150000  80.1040000   5.4360000
  66.1990000  79.0610000  10.2660000  69.3830000  80.3040000  11.8360000
  67.6040000  79.4460000  12.1860000  70.8540000  82.1390000   3.3760000
  71.8380000  82.3590000   5.1400000  68.6530000  81.0980000   3.5870000
  66.3970000  78.9640000  11.6020000  65.3890000  78.7370000   9.8910000
  67.7250000  79.3820000  13.1270000  71.8500000  82.7250000   2.5130000
  69.6290000  81.6630000   2.7770000  67.8520000  80.7810000   3.1860000
  65.7280000  78.5720000  12.1510000  71.6520000  82.8220000   1.1770000
  72.6600000  83.0490000   2.8880000  69.4650000  81.7890000   1.3540000
  70.4440000  82.3400000   0.5920000  72.3200000  83.2140000   0.6280000
  68.6660000  81.4820000   0.9420000  70.3230000  82.4050000  -0.3480000
  63.8830000  17.1290000  64.0280000  64.0390000  17.0090000  65.4200000
  64.8640000  17.6860000  63.1970000  62.6520000  16.6410000  63.4240000
  64.8400000  17.3270000  65.8200000  63.0630000  16.4440000  66.2290000
  65.6770000  18.0030000  63.5700000  64.6840000  17.7880000  61.8100000
  61.6600000  16.0690000  64.2560000  62.4720000  16.7430000  62.0360000
  61.8380000  15.9680000  65.6300000  63.2270000  16.3190000  67.6520000
  65.6760000  18.3600000  60.9780000  63.4530000  17.3000000  61.2050000
  60.8540000  15.7480000  63.8660000  61.6590000  16.4260000  61.6640000
  60.8420000  15.3820000  66.4940000  64.0270000  16.6250000  68.0640000
  62.2480000  15.7680000  68.4140000  65.4980000  18.4610000  59.6030000
  66.4820000  18.6810000  61.3670000  63.2970000  17.4200000  59.8140000
  61.0400000  15.2850000  67.8290000  60.0330000  15.0580000  66.1180000
  62.3690000  15.7030000  69.3540000  66.4940000  19.0470000  58.7400000
  64.2730000  17.9850000  59.0040000  62.4960000  17.1020000  59.4130000
  60.3720000  14.8930000  68.3790000  66.2960000  19.1440000  57.4040000
  67.3030000  19.3710000  59.1150000  64.1090000  18.1100000  57.5820000
  65.0880000  18.6610000  56.8200000  66.9640000  19.5360000  56.8550000
  63.3090000  17.8040000  57.1700000  64.9670000  18.7260000  55.8790000
  64.3840000  20.4060000  78.0850000  64.5400000  20.2860000  79.4760000
  65.3650000  20.9630000  77.2540000  63.1530000  19.9180000  77.4800000
  65.3420000  20.6040000  79.8770000  63.5640000  19.7210000  80.2860000
  66.1780000  21.2800000  77.6270000  65.1860000  21.0650000  75.8670000
  62.1610000  19.3460000  78.3130000  62.9740000  20.0200000  76.0930000
  62.3400000  19.2450000  79.6870000  63.7280000  19.5960000  81.7090000
  66.1770000  21.6370000  75.0350000  63.9550000  20.5770000  75.2620000
  61.3560000  19.0250000  77.9230000  62.1600000  19.7020000  75.7200000
  61.3440000  18.6590000  80.5500000  64.5280000  19.9020000  82.1210000
  62.7490000  19.0450000  82.4710000  65.9990000  21.7380000  73.6600000
  66.9830000  21.9580000  75.4240000  63.7980000  20.6960000  73.8710000
  61.5420000  18.5620000  81.8860000  60.5340000  18.3350000  80.1750000
  62.8700000  18.9800000  83.4110000  66.9950000  22.3230000  72.7970000
  64.7740000  21.2620000  73.0610000  62.9970000  20.3790000  73.4700000
  60.8730000  18.1700000  82.4350000  66.7970000  22.4210000  71.4610000
  67.8050000  22.6470000  73.1720000  64.6100000  21.3870000  71.6380000
  65.5890000  21.9380000  70.8770000  67.4650000  22.8120000  70.9120000
  63.8110000  21.0810000  71.2270000  65.4680000  22.0030000  69.9360000
  64.6190000  24.8070000  64.0280000  64.7750000  24.6880000  65.4200000
  65.6000000  25.3650000  63.1970000  63.3880000  24.3190000  63.4240000
  65.5760000  25.0060000  65.8200000  63.7990000  24.1230000  66.2290000
  66.4130000  25.6820000  63.5700000  65.4200000  25.4670000  61.8100000
  62.3960000  23.7480000  64.2560000  63.2080000  24.4210000  62.0360000
  62.5750000  23.6470000  65.6300000  63.9630000  23.9970000  67.6520000
  66.4120000  26.0380000  60.9780000  64.1900000  24.9790000  61.2050000
  61.5910000  23.4270000  63.8660000  62.3950000  24.1040000  61.6640000
  61.5790000  23.0610000  66.4940000  64.7630000  24.3040000  68.0640000
  62.9840000  23.4460000  68.4140000  66.2340000  26.1390000  59.6030000
  67.2180000  26.3590000  61.3670000  64.0330000  25.0980000  59.8140000
  61.7770000  22.9640000  67.8290000  60.7690000  22.7370000  66.1180000
  63.1050000  23.3810000  69.3540000  67.2300000  26.7250000  58.7400000
  65.0090000  25.6630000  59.0040000  63.2320000  24.7810000  59.4130000
  61.1080000  22.5720000  68.3790000  67.0320000  26.8220000  57.4040000
  68.0390000  27.0490000  59.1150000  64.8450000  25.7890000  57.5820000
  65.8240000  26.3400000  56.8200000  67.7000000  27.2140000  56.8550000
  64.0450000  25.4820000  57.1700000  65.7030000  26.4050000  55.8790000
  65.1200000  28.0840000  78.0850000  65.2760000  27.9650000  79.4760000
  66.1010000  28.6420000  77.2540000  63.8890000  27.5960000  77.4800000
  66.0780000  28.2820000  79.8770000  64.3000000  27.4000000  80.2860000
  66.9150000  28.9590000  77.6270000  65.9220000  28.7440000  75.8670000
  62.8970000  27.0250000  78.3130000  63.7100000  27.6980000  76.0930000
  63.0760000  26.9240000  79.6870000  64.4640000  27.2740000  81.7090000
  66.9140000  29.3150000  75.0350000  64.6910000  28.2560000  75.2620000
  62.0920000  26.7040000  77.9230000  62.8960000  27.3810000  75.7200000
  62.0800000  26.3380000  80.5500000  65.2640000  27.5810000  82.1210000
  63.4850000  26.7230000  82.4710000  66.7350000  29.4160000  73.6600000
  67.7190000  29.6360000  75.4240000  64.5340000  28.3750000  73.8710000
  62.2780000  26.2410000  81.8860000  61.2700000  26.0140000  80.1750000
  63.6060000  26.6580000  83.4110000  67.7310000  30.0020000  72.7970000
  65.5100000  28.9400000  73.0610000  63.7330000  28.0570000  73.4700000
  61.6090000  25.8490000  82.4350000  67.5330000  30.0990000  71.4610000
  68.5410000  30.3260000  73.1720000  65.3470000  29.0660000  71.6380000
  66.3260000  29.6170000  70.8770000  68.2010000  30.4910000  70.9120000
  64.5470000  28.7590000  71.2270000  66.2040000  29.6820000  69.9360000
  64.4240000  29.3810000  47.1490000  64.2680000  29.5000000  45.7570000
  63.4430000  28.8230000  47.9790000  65.6550000  29.8680000  47.7530000
  63.4670000  29.1820000  45.3560000  65.2440000  30.0650000  44.9470000
  62.6300000  28.5060000  47.6070000  63.6230000  28.7210000  49.3670000
  66.6470000  30.4400000  46.9210000  65.8350000  29.7670000  49.1400000
  66.4690000  30.5410000  45.5460000  65.0800000  30.1900000  43.5250000
  62.6310000  28.1500000  50.1990000  64.8540000  29.2090000  49.9710000
  67.4530000  30.7610000  47.3100000  66.6480000  30.0840000  49.5130000
  67.4650000  31.1270000  44.6830000  64.2800000  29.8840000  43.1130000
  66.0590000  30.7420000  42.7630000  62.8090000  28.0490000  51.5740000
  61.8250000  27.8290000  49.8100000  65.0100000  29.0900000  51.3630000
  67.2670000  31.2240000  43.3480000  68.2740000  31.4510000  45.0580000
  65.9380000  30.8060000  41.8220000  61.8130000  27.4630000  52.4370000
  64.0340000  28.5250000  52.1730000  65.8110000  29.4070000  51.7630000
  67.9350000  31.6160000  42.7980000  62.0110000  27.3660000  53.7720000
  61.0040000  27.1390000  52.0610000  64.1980000  28.3990000  53.5950000
  63.2190000  27.8480000  54.3570000  61.3430000  26.9740000  54.3220000
  64.9980000  28.7060000  54.0070000  63.3400000  27.7830000  55.2970000
  62.9210000  19.5500000   4.9780000  62.7640000  19.6690000   3.5870000
  61.9400000  18.9930000   5.8090000  64.1520000  20.0380000   5.5830000
  61.9630000  19.3520000   3.1860000  63.7400000  20.2350000   2.7770000
  61.1260000  18.6760000   5.4360000  62.1190000  18.8910000   7.1960000
  65.1430000  20.6100000   4.7500000  64.3310000  19.9360000   6.9700000
  64.9650000  20.7110000   3.3760000  63.5760000  20.3600000   1.3540000
  61.1270000  18.3190000   8.0280000  63.3500000  19.3790000   7.8010000
  65.9490000  20.9310000   5.1400000  65.1440000  20.2530000   7.3430000
  65.9610000  21.2960000   2.5130000  62.7770000  20.0540000   0.9420000
  64.5550000  20.9110000   0.5920000  61.3060000  18.2180000   9.4030000
  60.3220000  17.9980000   7.6390000  63.5060000  19.2590000   9.1920000
  65.7630000  21.3940000   1.1770000  66.7710000  21.6200000   2.8880000
  64.4340000  20.9760000  -0.3480000  60.3100000  17.6320000  10.2660000
  62.5300000  18.6940000  10.0020000  64.3080000  19.5770000   9.5930000
  66.4310000  21.7850000   0.6280000  60.5080000  17.5350000  11.6020000
  59.5000000  17.3080000   9.8910000  62.6940000  18.5690000  11.4250000
  61.7150000  18.0180000  12.1860000  59.8390000  17.1430000  12.1510000
  63.4940000  18.8750000  11.8360000  61.8360000  17.9530000  13.1270000
  65.3550000  32.4860000  64.0280000  65.5110000  32.3670000  65.4200000
  66.3360000  33.0430000  63.1970000  64.1240000  31.9980000  63.4240000
  66.3130000  32.6840000  65.8200000  64.5350000  31.8010000  66.2290000
  67.1490000  33.3610000  63.5700000  66.1570000  33.1450000  61.8100000
  63.1320000  31.4270000  64.2560000  63.9450000  32.1000000  62.0360000
  63.3110000  31.3250000  65.6300000  64.6990000  31.6760000  67.6520000
  67.1480000  33.7170000  60.9780000  64.9260000  32.6570000  61.2050000
  62.3270000  31.1050000  63.8660000  63.1310000  31.7830000  61.6640000
  62.3150000  30.7400000  66.4940000  65.4990000  31.9820000  68.0640000
  63.7200000  31.1250000  68.4140000  66.9700000  33.8180000  59.6030000
  67.9540000  34.0380000  61.3670000  64.7690000  32.7770000  59.8140000
  62.5130000  30.6420000  67.8290000  61.5050000  30.4160000  66.1180000
  63.8410000  31.0600000  69.3540000  67.9660000  34.4040000  58.7400000
  65.7450000  33.3420000  59.0040000  63.9680000  32.4590000  59.4130000
  61.8440000  30.2510000  68.3790000  67.7680000  34.5010000  57.4040000
  68.7760000  34.7280000  59.1150000  65.5810000  33.4670000  57.5820000
  66.5600000  34.0180000  56.8200000  68.4360000  34.8930000  56.8550000
  64.7820000  33.1610000  57.1700000  66.4390000  34.0830000  55.8790000
  65.8560000  35.7630000  78.0850000  66.0120000  35.6430000  79.4760000
  66.8370000  36.3200000  77.2540000  64.6250000  35.2750000  77.4800000
  66.8140000  35.9610000  79.8770000  65.0370000  35.0780000  80.2860000
  67.6510000  36.6370000  77.6270000  66.6580000  36.4220000  75.8670000
  63.6330000  34.7030000  78.3130000  64.4460000  35.3770000  76.0930000
  63.8120000  34.6020000  79.6870000  65.2000000  34.9530000  81.7090000
  67.6500000  36.9940000  75.0350000  65.4270000  35.9340000  75.2620000
  62.8280000  34.3820000  77.9230000  63.6320000  35.0600000  75.7200000
  62.8160000  34.0160000  80.5500000  66.0000000  35.2590000  82.1210000
  64.2210000  34.4020000  82.4710000  67.4710000  37.0950000  73.6600000
  68.4550000  37.3150000  75.4240000  65.2710000  36.0540000  73.8710000
  63.0140000  33.9190000  81.8860000  62.0060000  33.6920000  80.1750000
  64.3430000  34.3370000  83.4110000  68.4670000  37.6810000  72.7970000
  66.2460000  36.6190000  73.0610000  64.4690000  35.7360000  73.4700000
  62.3460000  33.5270000  82.4350000  68.2690000  37.7780000  71.4610000
  69.2770000  38.0050000  73.1720000  66.0830000  36.7440000  71.6380000
  67.0620000  37.2950000  70.8770000  68.9380000  38.1700000  70.9120000
  65.2830000  36.4380000  71.2270000  66.9410000  37.3600000  69.9360000
  66.8270000  47.8430000  64.0280000  66.9830000  47.7240000  65.4200000
  67.8080000  48.4010000  63.1970000  65.5960000  47.3550000  63.4240000
  67.7850000  48.0410000  65.8200000  66.0080000  47.1590000  66.2290000
  68.6220000  48.7180000  63.5700000  67.6290000  48.5030000  61.8100000
  64.6040000  46.7840000  64.2560000  65.4170000  47.4570000  62.0360000
  64.7830000  46.6830000  65.6300000  66.1710000  47.0330000  67.6520000
  68.6210000  49.0740000  60.9780000  66.3980000  48.0150000  61.2050000
  63.7990000  46.4630000  63.8660000  64.6030000  47.1400000  61.6640000
  63.7870000  46.0970000  66.4940000  66.9710000  47.3400000  68.0640000
  65.1920000  46.4820000  68.4140000  68.4420000  49.1750000  59.6030000
  69.4260000  49.3950000  61.3670000  66.2420000  48.1340000  59.8140000
  63.9850000  46.0000000  67.8290000  62.9770000  45.7730000  66.1180000
  65.3140000  46.4170000  69.3540000  69.4380000  49.7610000  58.7400000
  67.2170000  48.6990000  59.0040000  65.4400000  47.8160000  59.4130000
  63.3160000  45.6080000  68.3790000  69.2400000  49.8580000  57.4040000
  70.2480000  50.0850000  59.1150000  67.0540000  48.8250000  57.5820000
  68.0330000  49.3760000  56.8200000  69.9090000  50.2500000  56.8550000
  66.2540000  48.5180000  57.1700000  67.9110000  49.4400000  55.8790000
  65.1290000  42.5860000   4.9780000  64.9730000  42.7050000   3.5870000
  64.1480000  42.0280000   5.8090000  66.3600000  43.0740000   5.5830000
  64.1710000  42.3880000   3.1860000  65.9490000  43.2710000   2.7770000
  63.3340000  41.7110000   5.4360000  64.3270000  41.9270000   7.1960000
  67.3520000  43.6450000   4.7500000  66.5390000  42.9720000   6.9700000
  67.1730000  43.7460000   3.3760000  65.7850000  43.3960000   1.3540000
  63.3350000  41.3550000   8.0280000  65.5580000  42.4150000   7.8010000
  68.1570000  43.9660000   5.1400000  67.3530000  43.2890000   7.3430000
  68.1690000  44.3320000   2.5130000  64.9850000  43.0890000   0.9420000
  66.7640000  43.9470000   0.5920000  63.5140000  41.2540000   9.4030000
  62.5300000  41.0340000   7.6390000  65.7150000  42.2950000   9.1920000
  67.9710000  44.4290000   1.1770000  68.9790000  44.6560000   2.8880000
  66.6430000  44.0120000  -0.3480000  62.5180000  40.6680000  10.2660000
  64.7390000  41.7300000  10.0020000  66.5160000  42.6130000   9.5930000
  68.6400000  44.8210000   0.6280000  62.7160000  40.5710000  11.6020000
  61.7080000  40.3440000   9.8910000  64.9020000  41.6050000  11.4250000
  63.9230000  41.0530000  12.1860000  62.0480000  40.1790000  12.1510000
  65.7020000  41.9110000  11.8360000  64.0450000  40.9890000  13.1270000
  68.3710000  66.6490000  75.2620000  68.2150000  66.7680000  73.8710000
  67.3900000  66.0910000  76.0930000  69.6020000  67.1370000  75.8670000
  67.4140000  66.4500000  73.4700000  69.1910000  67.3330000  73.0610000
  66.5770000  65.7740000  75.7200000  67.5700000  65.9890000  77.4800000
  70.5940000  67.7080000  75.0350000  69.7820000  67.0350000  77.2540000
  70.4160000  67.8090000  73.6600000  69.0270000  67.4590000  71.6380000
  66.5780000  65.4180000  78.3130000  68.8010000  66.4770000  78.0850000
  71.4000000  68.0290000  75.4240000  70.5950000  67.3520000  77.6270000
  71.4120000  68.3950000  72.7970000  68.2270000  67.1520000  71.2270000
  70.0060000  68.0100000  70.8770000  66.7560000  65.3170000  79.6870000
  65.7720000  65.0970000  77.9230000  68.9570000  66.3580000  79.4760000
  71.2140000  68.4920000  71.4610000  72.2210000  68.7190000  73.1720000
  69.8850000  68.0750000  69.9360000  65.7600000  64.7310000  80.5500000
  67.9810000  65.7930000  80.2860000  69.7580000  66.6750000  79.8770000
  71.8820000  68.8840000  70.9120000  65.9580000  64.6340000  81.8860000
  64.9510000  64.4070000  80.1750000  68.1450000  65.6670000  81.7090000
  67.1660000  65.1160000  82.4710000  65.2900000  64.2420000  82.4350000
  68.9450000  65.9740000  82.1210000  67.2870000  65.0510000  83.4110000
  67.3690000  60.0950000  47.1490000  67.2130000  60.2140000  45.7570000
  66.3880000  59.5380000  47.9790000  68.6000000  60.5830000  47.7530000
  66.4110000  59.8970000  45.3560000  68.1880000  60.7800000  44.9470000
  65.5740000  59.2200000  47.6070000  66.5670000  59.4360000  49.3670000
  69.5920000  61.1540000  46.9210000  68.7790000  60.4810000  49.1400000
  69.4130000  61.2560000  45.5460000  68.0250000  60.9050000  43.5250000
  65.5750000  58.8640000  50.1990000  67.7980000  59.9240000  49.9710000
  70.3970000  61.4760000  47.3100000  69.5930000  60.7980000  49.5130000
  70.4090000  61.8410000  44.6830000  67.2250000  60.5980000  43.1130000
  69.0040000  61.4560000  42.7630000  65.7540000  58.7630000  51.5740000
  64.7700000  58.5430000  49.8100000  67.9540000  59.8040000  51.3630000
  70.2110000  61.9390000  43.3480000  71.2190000  62.1650000  45.0580000
  68.8820000  61.5210000  41.8220000  64.7580000  58.1770000  52.4370000
  66.9780000  59.2390000  52.1730000  68.7560000  60.1220000  51.7630000
  70.8790000  62.3300000  42.7980000  64.9560000  58.0800000  53.7720000
  63.9480000  57.8530000  52.0610000  67.1420000  59.1140000  53.5950000
  66.1630000  58.5630000  54.3570000  64.2870000  57.6880000  54.3220000
  67.9420000  59.4200000  54.0070000  66.2840000  58.4980000  55.2970000
  68.1050000  67.7730000  47.1490000  67.9490000  67.8930000  45.7570000
  67.1240000  67.2160000  47.9790000  69.3360000  68.2610000  47.7530000
  67.1470000  67.5750000  45.3560000  68.9250000  68.4580000  44.9470000
  66.3100000  66.8990000  47.6070000  67.3030000  67.1140000  49.3670000
  70.3280000  68.8330000  46.9210000  69.5150000  68.1600000  49.1400000
  70.1490000  68.9340000  45.5460000  68.7610000  68.5830000  43.5250000
  66.3110000  66.5430000  50.1990000  68.5340000  67.6020000  49.9710000
  71.1330000  69.1540000  47.3100000  70.3290000  68.4770000  49.5130000
  71.1450000  69.5200000  44.6830000  67.9610000  68.2770000  43.1130000
  69.7400000  69.1350000  42.7630000  66.4900000  66.4420000  51.5740000
  65.5060000  66.2220000  49.8100000  68.6910000  67.4830000  51.3630000
  70.9470000  69.6170000  43.3480000  71.9550000  69.8440000  45.0580000
  69.6190000  69.1990000  41.8220000  65.4940000  65.8560000  52.4370000
  67.7150000  66.9170000  52.1730000  69.4920000  67.8000000  51.7630000
  71.6160000  70.0090000  42.7980000  65.6920000  65.7590000  53.7720000
  64.6840000  65.5320000  52.0610000  67.8780000  66.7920000  53.5950000
  66.8990000  66.2410000  54.3570000  65.0240000  65.3670000  54.3220000
  68.6780000  67.0990000  54.0070000  67.0210000  66.1760000  55.2970000
  66.6010000  57.9430000   4.9780000  66.4450000  58.0620000   3.5870000
  65.6200000  57.3860000   5.8090000  67.8320000  58.4310000   5.5830000
  65.6430000  57.7450000   3.1860000  67.4210000  58.6280000   2.7770000
  64.8070000  57.0680000   5.4360000  65.8000000  57.2840000   7.1960000
  68.8240000  59.0030000   4.7500000  68.0110000  58.3290000   6.9700000
  68.6450000  59.1040000   3.3760000  67.2570000  58.7530000   1.3540000
  64.8080000  56.7120000   8.0280000  67.0300000  57.7720000   7.8010000
  69.6290000  59.3240000   5.1400000  68.8250000  58.6460000   7.3430000
  69.6410000  59.6890000   2.5130000  66.4570000  58.4470000   0.9420000
  68.2360000  59.3040000   0.5920000  64.9860000  56.6110000   9.4030000
  64.0020000  56.3910000   7.6390000  67.1870000  57.6520000   9.1920000
  69.4430000  59.7870000   1.1770000  70.4510000  60.0130000   2.8880000
  68.1150000  59.3690000  -0.3480000  63.9900000  56.0250000  10.2660000
  66.2110000  57.0870000  10.0020000  67.9880000  57.9700000   9.5930000
  70.1120000  60.1780000   0.6280000  64.1880000  55.9280000  11.6020000
  63.1800000  55.7010000   9.8910000  66.3750000  56.9620000  11.4250000
  65.3960000  56.4110000  12.1860000  63.5200000  55.5360000  12.1510000
  67.1740000  57.2680000  11.8360000  65.5170000  56.3460000  13.1270000
  68.6060000  71.0500000  61.2050000  68.4500000  71.1700000  59.8140000
  67.6250000  70.4930000  62.0360000  69.8370000  71.5380000  61.8100000
  67.6490000  70.8520000  59.4130000  69.4260000  71.7350000  59.0040000
  66.8120000  70.1760000  61.6640000  67.8050000  70.3910000  63.4240000
  70.8290000  72.1100000  60.9780000  70.0170000  71.4360000  63.1970000
  70.6500000  72.2110000  59.6030000  69.2620000  71.8600000  57.5820000
  66.8130000  69.8190000  64.2560000  69.0350000  70.8790000  64.0280000
  71.6340000  72.4310000  61.3670000  70.8300000  71.7540000  63.5700000
  71.6460000  72.7970000  58.7400000  68.4620000  71.5540000  57.1700000
  70.2410000  72.4110000  56.8200000  66.9910000  69.7180000  65.6300000
  66.0070000  69.4980000  63.8660000  69.1920000  70.7600000  65.4200000
  71.4480000  72.8940000  57.4040000  72.4560000  73.1210000  59.1150000
  70.1200000  72.4760000  55.8790000  65.9950000  69.1330000  66.4940000
  68.2160000  70.1940000  66.2290000  69.9930000  71.0770000  65.8200000
  72.1170000  73.2860000  56.8550000  66.1930000  69.0350000  67.8290000
  65.1850000  68.8090000  66.1180000  68.3800000  70.0690000  67.6520000
  67.4010000  69.5180000  68.4140000  65.5250000  68.6440000  68.3790000
  69.1800000  70.3750000  68.0640000  67.5220000  69.4530000  69.3540000
  67.3370000  65.6220000   4.9780000  67.1810000  65.7410000   3.5870000
  66.3560000  65.0640000   5.8090000  68.5680000  66.1100000   5.5830000
  66.3800000  65.4230000   3.1860000  68.1570000  66.3060000   2.7770000
  65.5430000  64.7470000   5.4360000  66.5360000  64.9620000   7.1960000
  69.5600000  66.6810000   4.7500000  68.7480000  66.0080000   6.9700000
  69.3810000  66.7820000   3.3760000  67.9930000  66.4320000   1.3540000
  65.5440000  64.3910000   8.0280000  67.7660000  65.4500000   7.8010000
  70.3650000  67.0020000   5.1400000  69.5610000  66.3250000   7.3430000
  70.3770000  67.3680000   2.5130000  67.1930000  66.1250000   0.9420000
  68.9720000  66.9830000   0.5920000  65.7220000  64.2900000   9.4030000
  64.7380000  64.0700000   7.6390000  67.9230000  65.3310000   9.1920000
  70.1790000  67.4650000   1.1770000  71.1870000  67.6920000   2.8880000
  68.8510000  67.0480000  -0.3480000  64.7260000  63.7040000  10.2660000
  66.9470000  64.7660000  10.0020000  68.7240000  65.6480000   9.5930000
  70.8480000  67.8570000   0.6280000  64.9240000  63.6070000  11.6020000
  63.9170000  63.3800000   9.8910000  67.1110000  64.6400000  11.4250000
  66.1320000  64.0890000  12.1860000  64.2560000  63.2150000  12.1510000
  67.9110000  64.9470000  11.8360000  66.2530000  64.0240000  13.1270000
  68.2680000  68.7270000  21.8580000  68.4240000  68.6080000  23.2490000
  69.2490000  69.2840000  21.0270000  67.0370000  68.2390000  21.2530000
  69.2260000  68.9250000  23.6500000  67.4480000  68.0420000  24.0590000
  70.0620000  69.6020000  21.3990000  69.0690000  69.3860000  19.6390000
  66.0450000  67.6680000  22.0850000  66.8580000  68.3410000  19.8660000
  66.2240000  67.5670000  23.4600000  67.6120000  67.9170000  25.4810000
  70.0610000  69.9580000  18.8070000  67.8390000  68.8980000  19.0350000
  65.2400000  67.3460000  21.6960000  66.0440000  68.0240000  19.4930000
  65.2280000  66.9810000  24.3230000  68.4120000  68.2240000  25.8930000
  66.6330000  67.3660000  26.2430000  69.8830000  70.0590000  17.4320000
  70.8670000  70.2790000  19.1970000  67.6820000  69.0180000  17.6430000
  65.4260000  66.8830000  25.6590000  64.4180000  66.6570000  23.9480000
  66.7540000  67.3010000  27.1840000  70.8790000  70.6450000  16.5690000
  68.6580000  69.5830000  16.8340000  66.8810000  68.7000000  17.2430000
  64.7570000  66.4920000  26.2080000  70.6810000  70.7420000  15.2340000
  71.6890000  70.9690000  16.9450000  68.4940000  69.7080000  15.4110000
  69.4730000  70.2590000  14.6490000  71.3490000  71.1340000  14.6840000
  67.6950000  69.4020000  14.9990000  69.3520000  70.3240000  13.7090000
  68.8410000  75.4520000  47.1490000  68.6850000  75.5720000  45.7570000
  67.8600000  74.8950000  47.9790000  70.0720000  75.9400000  47.7530000
  67.8830000  75.2540000  45.3560000  69.6610000  76.1370000  44.9470000
  67.0470000  74.5780000  47.6070000  68.0390000  74.7930000  49.3670000
  71.0640000  76.5120000  46.9210000  70.2510000  75.8380000  49.1400000
  70.8850000  76.6130000  45.5460000  69.4970000  76.2620000  43.5250000
  67.0470000  74.2210000  50.1990000  69.2700000  75.2810000  49.9710000
  71.8690000  76.8330000  47.3100000  71.0650000  76.1550000  49.5130000
  71.8810000  77.1990000  44.6830000  68.6970000  75.9560000  43.1130000
  70.4760000  76.8130000  42.7630000  67.2260000  74.1200000  51.5740000
  66.2420000  73.9000000  49.8100000  69.4270000  75.1610000  51.3630000
  71.6830000  77.2960000  43.3480000  72.6910000  77.5230000  45.0580000
  70.3550000  76.8780000  41.8220000  66.2300000  73.5340000  52.4370000
  68.4510000  74.5960000  52.1730000  70.2280000  75.4790000  51.7630000
  72.3520000  77.6870000  42.7980000  66.4280000  73.4370000  53.7720000
  65.4200000  73.2100000  52.0610000  68.6150000  74.4710000  53.5950000
  67.6360000  73.9200000  54.3570000  65.7600000  73.0450000  54.3220000
  69.4140000  74.7770000  54.0070000  67.7570000  73.8550000  55.2970000
  69.8440000  82.0060000  75.2620000  69.6870000  82.1250000  73.8710000
  68.8630000  81.4480000  76.0930000  71.0750000  82.4940000  75.8670000
  68.8860000  81.8080000  73.4700000  70.6630000  82.6900000  73.0610000
  68.0490000  81.1310000  75.7200000  69.0420000  81.3460000  77.4800000
  72.0660000  83.0650000  75.0350000  71.2540000  82.3920000  77.2540000
  71.8880000  83.1660000  73.6600000  70.4990000  82.8160000  71.6380000
  68.0500000  80.7750000  78.3130000  70.2730000  81.8340000  78.0850000
  72.8720000  83.3860000  75.4240000  72.0670000  82.7090000  77.6270000
  72.8840000  83.7520000  72.7970000  69.7000000  82.5090000  71.2270000
  71.4780000  83.3670000  70.8770000  68.2290000  80.6740000  79.6870000
  67.2450000  80.4540000  77.9230000  70.4290000  81.7150000  79.4760000
  72.6860000  83.8490000  71.4610000  73.6940000  84.0760000  73.1720000
  71.3570000  83.4320000  69.9360000  67.2330000  80.0880000  80.5500000
  69.4530000  81.1500000  80.2860000  71.2310000  82.0330000  79.8770000
  73.3540000  84.2410000  70.9120000  67.4310000  79.9910000  81.8860000
  66.4230000  79.7640000  80.1750000  69.6170000  81.0240000  81.7090000
  68.6380000  80.4730000  82.4710000  66.7620000  79.5990000  82.4350000
  70.4170000  81.3310000  82.1210000  68.7590000  80.4090000  83.4110000
  68.2990000  63.2000000  64.0280000  68.4560000  63.0810000  65.4200000
  69.2800000  63.7580000  63.1970000  67.0680000  62.7120000  63.4240000
  69.2570000  63.3990000  65.8200000  67.4800000  62.5160000  66.2290000
  70.0940000  64.0750000  63.5700000  69.1010000  63.8600000  61.8100000
  66.0770000  62.1410000  64.2560000  66.8890000  62.8140000  62.0360000
  66.2550000  62.0400000  65.6300000  67.6440000  62.3900000  67.6520000
  70.0930000  64.4310000  60.9780000  67.8700000  63.3720000  61.2050000
  65.2710000  61.8200000  63.8660000  66.0760000  62.4970000  61.6640000
  65.2590000  61.4540000  66.4940000  68.4430000  62.6970000  68.0640000
  66.6650000  61.8390000  68.4140000  69.9140000  64.5320000  59.6030000
  70.8980000  64.7520000  61.3670000  67.7140000  63.4910000  59.8140000
  65.4570000  61.3570000  67.8290000  64.4490000  61.1300000  66.1180000
  66.7860000  61.7740000  69.3540000  70.9100000  65.1180000  58.7400000
  68.6900000  64.0560000  59.0040000  66.9120000  63.1740000  59.4130000
  64.7890000  60.9650000  68.3790000  70.7120000  65.2150000  57.4040000
  71.7200000  65.4420000  59.1150000  68.5260000  64.1820000  57.5820000
  69.5050000  64.7330000  56.8200000  71.3810000  65.6070000  56.8550000
  67.7260000  63.8750000  57.1700000  69.3840000  64.7980000  55.8790000
  69.7710000  78.5580000  64.0280000  69.9280000  78.4380000  65.4200000
  70.7530000  79.1150000  63.1970000  68.5410000  78.0700000  63.4240000
  70.7290000  78.7560000  65.8200000  68.9520000  77.8730000  66.2290000
  71.5660000  79.4320000  63.5700000  70.5730000  79.2170000  61.8100000
  67.5490000  77.4980000  64.2560000  68.3610000  78.1720000  62.0360000
  67.7270000  77.3970000  65.6300000  69.1160000  77.7480000  67.6520000
  71.5650000  79.7880000  60.9780000  69.3420000  78.7290000  61.2050000
  66.7430000  77.1770000  63.8660000  67.5480000  77.8540000  61.6640000
  66.7310000  76.8110000  66.4940000  69.9160000  78.0540000  68.0640000
  68.1370000  77.1970000  68.4140000  71.3870000  79.8900000  59.6030000
  72.3700000  80.1100000  61.3670000  69.1860000  78.8480000  59.8140000
  66.9290000  76.7140000  67.8290000  65.9220000  76.4870000  66.1180000
  68.2580000  77.1320000  69.3540000  72.3830000  80.4750000  58.7400000
  70.1620000  79.4140000  59.0040000  68.3850000  78.5310000  59.4130000
  66.2610000  76.3220000  68.3790000  72.1850000  80.5730000  57.4040000
  73.1920000  80.7990000  59.1150000  69.9980000  79.5390000  57.5820000
  70.9770000  80.0900000  56.8200000  72.8530000  80.9640000  56.8550000
  69.1980000  79.2320000  57.1700000  70.8560000  80.1550000  55.8790000
  72.3100000  85.4340000   5.1650000  72.1400000  86.1110000   3.9410000
  71.3350000  85.4400000   6.1690000  73.5550000  84.7050000   5.3970000
  71.3390000  86.5990000   3.7890000  73.1130000  86.0840000   2.9510000
  70.5210000  85.9120000   6.0380000  71.5050000  84.7600000   7.3820000
  74.5390000  84.7000000   4.3780000  73.7250000  84.0250000   6.6100000
  74.3430000  85.3600000   3.1770000  72.9410000  86.7440000   1.6970000
  70.5210000  84.7640000   8.4010000  72.7490000  84.0300000   7.6140000
  75.3530000  84.2330000   4.5230000  74.5390000  83.5530000   6.7410000
  75.3270000  85.3430000   2.1400000  72.1380000  87.2250000   1.5310000
  73.8980000  86.7010000   0.7390000  70.7170000  84.1050000   9.6010000
  69.7070000  85.2320000   8.2560000  72.9200000  83.3540000   8.8380000
  75.1160000  85.9860000   0.9680000  76.1420000  84.8740000   2.2760000
  73.7600000  87.1460000  -0.0890000  69.7320000  84.1220000  10.6390000
  71.9470000  83.3810000   9.8280000  73.7210000  82.8660000   8.9900000
  75.7830000  85.9630000   0.2920000  69.9430000  83.4780000  11.8110000
  68.9180000  84.5910000  10.5020000  72.1190000  82.7210000  11.0820000
  71.1610000  82.7640000  12.0400000  69.2770000  83.5020000  12.4870000
  72.9220000  82.2400000  11.2470000  71.3000000  82.3190000  12.8680000
  75.2560000 100.4150000  77.8980000  75.4260000  99.7380000  79.1220000
  76.2310000 100.4090000  76.8940000  74.0120000 101.1440000  77.6660000
  76.2270000  99.2500000  79.2740000  74.4530000  99.7650000  80.1120000
  77.0450000  99.9370000  77.0250000  76.0610000 101.0900000  75.6810000
  73.0270000 101.1490000  78.6850000  73.8410000 101.8240000  76.4530000
  73.2230000 100.4890000  79.8860000  74.6250000  99.1050000  81.3660000
  77.0450000 101.0850000  74.6620000  74.8170000 101.8190000  75.4490000
  72.2130000 101.6160000  78.5400000  73.0270000 102.2960000  76.3220000
  72.2390000 100.5060000  80.9230000  75.4280000  98.6240000  81.5320000
  73.6680000  99.1480000  82.3240000  76.8500000 101.7440000  73.4620000
  77.8590000 100.6170000  74.8070000  74.6460000 102.4950000  74.2250000
  72.4500000  99.8630000  82.0950000  71.4240000 100.9750000  80.7870000
  73.8060000  98.7030000  83.1520000  77.8340000 101.7270000  72.4240000
  75.6190000 102.4680000  73.2350000  73.8450000 102.9830000  74.0730000
  71.7830000  99.8860000  82.7710000  77.6230000 102.3710000  71.2520000
  78.6480000 101.2580000  72.5610000  75.4470000 103.1280000  71.9810000
  76.4050000 103.0850000  71.0230000  78.2890000 102.3470000  70.5760000
  74.6440000 103.6090000  71.8150000  76.2660000 103.5300000  70.1950000
  73.3130000  91.9880000  33.2790000  73.1420000  92.6650000  32.0540000
  72.3370000  91.9930000  34.2820000  74.5570000  91.2590000  33.5110000
  72.3410000  93.1520000  31.9030000  74.1150000  92.6380000  31.0650000
  71.5240000  92.4660000  34.1520000  72.5080000  91.3130000  35.4960000
  75.5410000  91.2540000  32.4920000  74.7280000  90.5790000  34.7240000
  75.3460000  91.9130000  31.2910000  73.9430000  93.2980000  29.8110000
  71.5230000  91.3180000  36.5150000  73.7520000  90.5840000  35.7270000
  76.3560000  90.7860000  32.6360000  75.5410000  90.1060000  34.8550000
  76.3300000  91.8960000  30.2540000  73.1410000  93.7790000  29.6450000
  74.9010000  93.2540000  28.8520000  71.7190000  90.6590000  37.7150000
  70.7090000  91.7860000  36.3700000  73.9220000  89.9070000  36.9520000
  76.1190000  92.5400000  29.0810000  77.1450000  91.4280000  30.3900000
  74.7630000  93.7000000  28.0240000  70.7350000  90.6760000  38.7520000
  72.9500000  89.9350000  37.9410000  74.7230000  89.4200000  37.1040000
  76.7850000  92.5170000  28.4050000  70.9460000  90.0320000  39.9250000
  69.9200000  91.1450000  38.6160000  73.1220000  89.2750000  39.1950000
  72.1640000  89.3180000  40.1540000  70.2790000  90.0550000  40.6010000
  73.9240000  88.7940000  39.3610000  72.3020000  88.8730000  40.9820000
  73.8140000  95.2650000  47.3360000  73.6440000  95.9420000  46.1110000
  72.8380000  95.2700000  48.3390000  75.0580000  94.5360000  47.5670000
  72.8430000  96.4290000  45.9590000  74.6160000  95.9140000  45.1220000
  72.0250000  95.7430000  48.2080000  73.0090000  94.5900000  49.5520000
  76.0430000  94.5310000  46.5480000  75.2290000  93.8560000  48.7810000
  75.8470000  95.1900000  45.3480000  74.4450000  96.5740000  43.8680000
  72.0250000  94.5950000  50.5710000  74.2530000  93.8610000  49.7840000
  76.8570000  94.0630000  46.6930000  76.0430000  93.3830000  48.9110000
  76.8310000  95.1730000  44.3110000  73.6420000  97.0560000  43.7020000
  75.4020000  96.5310000  42.9090000  72.2200000  93.9360000  51.7720000
  71.2100000  95.0630000  50.4270000  74.4240000  93.1840000  51.0090000
  76.6200000  95.8170000  43.1380000  77.6460000  94.7040000  44.4470000
  75.2640000  96.9760000  42.0810000  71.2360000  93.9530000  52.8090000
  73.4510000  93.2110000  51.9980000  75.2250000  92.6970000  51.1600000
  77.2870000  95.7940000  42.4620000  71.4470000  93.3090000  53.9820000
  70.4210000  94.4210000  52.6730000  73.6230000  92.5520000  53.2520000
  72.6650000  92.5950000  54.2110000  70.7810000  93.3320000  54.6580000
  74.4250000  92.0700000  53.4180000  72.8040000  92.1490000  55.0390000
  74.7540000  97.1380000  63.8410000  74.9250000  96.4610000  65.0650000
  75.7300000  97.1330000  62.8370000  73.5100000  97.8670000  63.6090000
  75.7260000  95.9730000  65.2170000  73.9520000  96.4880000  66.0550000
  76.5440000  96.6600000  62.9680000  75.5600000  97.8130000  61.6240000
  72.5260000  97.8720000  64.6280000  73.3400000  98.5470000  62.3960000
  72.7220000  97.2130000  65.8290000  74.1240000  95.8280000  67.3090000
  76.5440000  97.8080000  60.6050000  74.3150000  98.5420000  61.3920000
  71.7120000  98.3390000  64.4830000  72.5260000  99.0190000  62.2650000
  71.7370000  97.2290000  66.8660000  74.9270000  95.3470000  67.4750000
  73.1660000  95.8710000  68.2680000  76.3480000  98.4670000  59.4050000
  77.3580000  97.3400000  60.7500000  74.1450000  99.2190000  60.1680000
  71.9490000  96.5860000  68.0380000  70.9230000  97.6980000  66.7300000
  73.3050000  95.4260000  69.0960000  77.3330000  98.4500000  58.3670000
  75.1180000  99.1910000  59.1780000  73.3440000  99.7060000  60.0160000
  71.2820000  96.6090000  68.7150000  77.1210000  99.0940000  57.1950000
  78.1470000  97.9810000  58.5040000  74.9460000  99.8510000  57.9250000
  75.9030000  99.8080000  56.9660000  77.7880000  99.0700000  56.5190000
  74.1430000 100.3320000  57.7590000  75.7650000 100.2530000  56.1380000
  75.7570000 103.6910000  91.9550000  75.9270000 103.0150000  93.1790000
  76.7330000 103.6860000  90.9510000  74.5130000 104.4210000  91.7230000
  76.7290000 102.5270000  93.3310000  74.9550000 103.0420000  94.1690000
  77.5460000 103.2140000  91.0820000  76.5620000 104.3660000  89.7380000
  73.5280000 104.4250000  92.7420000  74.3420000 105.1010000  90.5100000
  73.7240000 103.7660000  93.9420000  75.1270000 102.3820000  95.4230000
  77.5460000 104.3610000  88.7190000  75.3180000 105.0950000  89.5060000
  72.7140000 104.8930000  92.5970000  73.5290000 105.5730000  90.3790000
  72.7400000 103.7830000  94.9800000  75.9290000 101.9010000  95.5880000
  74.1690000 102.4250000  96.3810000  77.3510000 105.0210000  87.5180000
  78.3610000 103.8940000  88.8640000  75.1480000 105.7720000  88.2820000
  72.9510000 103.1390000  96.1520000  71.9250000 104.2520000  94.8430000
  74.3070000 101.9800000  97.2090000  78.3350000 105.0040000  86.4810000
  76.1200000 105.7450000  87.2920000  74.3460000 106.2600000  88.1300000
  72.2850000 103.1630000  96.8280000  78.1240000 105.6470000  85.3090000
  79.1500000 104.5350000  86.6170000  75.9480000 106.4050000  86.0380000
  76.9060000 106.3620000  85.0800000  78.7900000 105.6240000  84.6320000
  75.1460000 106.8860000  85.8720000  76.7680000 106.8070000  84.2520000
  65.4500000  11.9250000  19.2220000  65.2800000  12.6020000  17.9980000
  64.4750000  11.9310000  20.2260000  66.6950000  11.1960000  19.4540000
  64.4790000  13.0900000  17.8460000  66.2530000  12.5750000  17.0080000
  63.6610000  12.4030000  20.0950000  64.6450000  11.2500000  21.4390000
  67.6790000  11.1910000  18.4350000  66.8650000  10.5160000  20.6670000
  67.4830000  11.8510000  17.2340000  66.0810000  13.2350000  15.7540000
  63.6610000  11.2550000  22.4580000  65.8890000  10.5210000  21.6710000
  68.4930000  10.7240000  18.5800000  67.6790000  10.0440000  20.7980000
  68.4680000  11.8340000  16.1970000  65.2780000  13.7160000  15.5880000
  67.0380000  13.1920000  14.7950000  63.8570000  10.5960000  23.6580000
  62.8470000  11.7230000  22.3130000  66.0600000   9.8450000  22.8950000
  68.2560000  12.4770000  15.0250000  69.2820000  11.3650000  16.3330000
  66.9000000  13.6370000  13.9670000  62.8720000  10.6130000  24.6960000
  65.0870000   9.8720000  23.8850000  66.8610000   9.3570000  23.0470000
  68.9230000  12.4540000  14.3480000  63.0840000   9.9690000  25.8680000
  62.0580000  11.0820000  24.5590000  65.2590000   9.2120000  25.1380000
  64.3010000   9.2550000  26.0970000  62.4170000   9.9930000  26.5440000
  66.0620000   8.7310000  25.3040000  64.4400000   8.8100000  26.9250000
  66.3910000  13.7980000  35.7270000  66.5610000  13.1210000  36.9520000
  67.3660000  13.7930000  34.7240000  65.1470000  14.5270000  35.4960000
  67.3620000  12.6340000  37.1040000  65.5890000  13.1490000  37.9410000
  68.1800000  13.3200000  34.8550000  67.1960000  14.4730000  33.5110000
  64.1620000  14.5320000  36.5150000  64.9760000  15.2070000  34.2820000
  64.3580000  13.8730000  37.7150000  65.7600000  12.4890000  39.1950000
  68.1800000  14.4680000  32.4920000  65.9520000  15.2020000  33.2790000
  63.3480000  15.0000000  36.3700000  64.1620000  15.6800000  34.1520000
  63.3740000  13.8900000  38.7520000  66.5630000  12.0080000  39.3610000
  64.8030000  12.5320000  40.1540000  67.9850000  15.1270000  31.2910000
  68.9950000  14.0000000  32.6360000  65.7810000  15.8790000  32.0540000
  63.5850000  13.2460000  39.9250000  62.5590000  14.3590000  38.6160000
  64.9410000  12.0870000  40.9820000  68.9690000  15.1110000  30.2540000
  66.7540000  15.8520000  31.0650000  64.9800000  16.3660000  31.9030000
  62.9180000  13.2690000  40.6010000  68.7580000  15.7540000  29.0810000
  69.7830000  14.6420000  30.3900000  66.5820000  16.5120000  29.8110000
  67.5400000  16.4690000  28.8520000  69.4240000  15.7310000  28.4050000
  65.7790000  16.9930000  29.6450000  67.4010000  16.9140000  28.0240000
  64.9490000   8.6490000   5.1650000  64.7790000   9.3250000   3.9410000
  63.9730000   8.6540000   6.1690000  66.1930000   7.9190000   5.3970000
  63.9780000   9.8130000   3.7890000  65.7510000   9.2980000   2.9510000
  63.1600000   9.1260000   6.0380000  64.1440000   7.9740000   7.3820000
  67.1780000   7.9140000   4.3780000  66.3640000   7.2390000   6.6100000
  66.9820000   8.5740000   3.1770000  65.5800000   9.9580000   1.6970000
  63.1600000   7.9780000   8.4010000  65.3880000   7.2440000   7.6140000
  67.9920000   7.4470000   4.5230000  67.1780000   6.7670000   6.7410000
  67.9660000   8.5570000   2.1400000  64.7770000  10.4390000   1.5310000
  66.5370000   9.9150000   0.7390000  63.3550000   7.3190000   9.6010000
  62.3450000   8.4460000   8.2560000  65.5590000   6.5680000   8.8380000
  67.7550000   9.2000000   0.9680000  68.7810000   8.0880000   2.2760000
  66.3990000  10.3600000  -0.0890000  62.3710000   7.3360000  10.6390000
  64.5860000   6.5950000   9.8280000  66.3600000   6.0800000   8.9900000
  68.4220000   9.1770000   0.2920000  62.5820000   6.6930000  11.8110000
  61.5560000   7.8050000  10.5020000  64.7580000   5.9350000  11.0820000
  63.8000000   5.9780000  12.0400000  61.9160000   6.7160000  12.4870000
  65.5600000   5.4540000  11.2470000  63.9390000   5.5330000  12.8680000
  67.3930000  20.3520000  63.8410000  67.5640000  19.6750000  65.0650000
  68.3690000  20.3470000  62.8370000  66.1490000  21.0810000  63.6090000
  68.3650000  19.1880000  65.2170000  66.5910000  19.7020000  66.0550000
  69.1830000  19.8740000  62.9680000  68.1980000  21.0270000  61.6240000
  65.1650000  21.0860000  64.6280000  65.9790000  21.7610000  62.3960000
  65.3600000  20.4270000  65.8290000  66.7630000  19.0420000  67.3090000
  69.1830000  21.0220000  60.6050000  66.9540000  21.7560000  61.3920000
  64.3500000  21.5530000  64.4830000  65.1650000  22.2330000  62.2650000
  64.3760000  20.4430000  66.8660000  67.5650000  18.5610000  67.4750000
  65.8050000  19.0850000  68.2680000  68.9870000  21.6810000  59.4050000
  69.9970000  20.5540000  60.7500000  66.7840000  22.4330000  60.1680000
  64.5870000  19.8000000  68.0380000  63.5610000  20.9120000  66.7300000
  65.9440000  18.6400000  69.0960000  69.9710000  21.6640000  58.3670000
  67.7560000  22.4050000  59.1780000  65.9830000  22.9200000  60.0160000
  63.9210000  19.8230000  68.7150000  69.7600000  22.3080000  57.1950000
  70.7860000  21.1950000  58.5040000  67.5850000  23.0650000  57.9250000
  68.5420000  23.0220000  56.9660000  70.4270000  22.2840000  56.5190000
  66.7820000  23.5460000  57.7590000  68.4040000  23.4670000  56.1380000
  67.9570000  28.3100000  89.5060000  67.7860000  28.9860000  88.2820000
  66.9810000  28.3150000  90.5100000  69.2010000  27.5800000  89.7380000
  66.9850000  29.4740000  88.1300000  68.7590000  28.9590000  87.2920000
  66.1670000  28.7870000  90.3790000  67.1520000  27.6350000  91.7230000
  70.1850000  27.5750000  88.7190000  69.3710000  26.9000000  90.9510000
  69.9900000  28.2350000  87.5180000  68.5870000  29.6190000  86.0380000
  66.1670000  27.6390000  92.7420000  68.3960000  26.9050000  91.9550000
  71.0000000  27.1080000  88.8640000  70.1850000  26.4280000  91.0820000
  70.9740000  28.2180000  86.4810000  67.7850000  30.1000000  85.8720000
  69.5450000  29.5760000  85.0800000  66.3630000  26.9800000  93.9420000
  65.3530000  28.1070000  92.5970000  68.5660000  26.2290000  93.1790000
  70.7630000  28.8610000  85.3090000  71.7890000  27.7490000  86.6170000
  69.4060000  30.0210000  84.2520000  65.3790000  26.9970000  94.9800000
  67.5940000  26.2560000  94.1690000  69.3670000  25.7410000  93.3310000
  71.4290000  28.8380000  84.6320000  65.5900000  26.3540000  96.1520000
  64.5640000  27.4660000  94.8430000  67.7650000  25.5960000  95.4230000
  66.8080000  25.6390000  96.3810000  64.9230000  26.3770000  96.8280000
  68.5680000  25.1150000  95.5880000  66.9460000  25.1940000  97.2090000
  66.4530000  18.4790000  47.3360000  66.2830000  19.1560000  46.1110000
  65.4770000  18.4840000  48.3390000  67.6970000  17.7500000  47.5670000
  65.4810000  19.6430000  45.9590000  67.2550000  19.1290000  45.1220000
  64.6640000  18.9570000  48.2080000  65.6480000  17.8040000  49.5520000
  68.6810000  17.7450000  46.5480000  67.8680000  17.0700000  48.7810000
  68.4860000  18.4040000  45.3480000  67.0830000  19.7880000  43.8680000
  64.6630000  17.8090000  50.5710000  66.8920000  17.0750000  49.7840000
  69.4960000  17.2770000  46.6930000  68.6810000  16.5970000  48.9110000
  69.4700000  18.3870000  44.3110000  66.2810000  20.2700000  43.7020000
  68.0410000  19.7450000  42.9090000  64.8590000  17.1500000  51.7720000
  63.8490000  18.2770000  50.4270000  67.0620000  16.3980000  51.0090000
  69.2590000  19.0310000  43.1380000  70.2850000  17.9190000  44.4470000
  67.9030000  20.1900000  42.0810000  63.8750000  17.1670000  52.8090000
  66.0900000  16.4250000  51.9980000  67.8640000  15.9110000  51.1600000
  69.9250000  19.0080000  42.4620000  64.0860000  16.5230000  53.9820000
  63.0600000  17.6350000  52.6730000  66.2620000  15.7660000  53.2520000
  65.3040000  15.8090000  54.2110000  63.4200000  16.5460000  54.6580000
  67.0640000  15.2840000  53.4180000  65.4420000  15.3630000  55.0390000
  67.4560000  25.0330000  75.4490000  67.2850000  25.7090000  74.2250000
  66.4800000  25.0380000  76.4530000  68.7000000  24.3040000  75.6810000
  66.4840000  26.1970000  74.0730000  68.2580000  25.6820000  73.2350000
  65.6660000  25.5100000  76.3220000  66.6500000  24.3580000  77.6660000
  69.6840000  24.2990000  74.6620000  68.8700000  23.6230000  76.8940000
  69.4880000  24.9580000  73.4620000  68.0860000  26.3420000  71.9810000
  65.6660000  24.3630000  78.6850000  67.8940000  23.6290000  77.8980000
  70.4980000  23.8310000  74.8070000  69.6840000  23.1510000  77.0250000
  70.4730000  24.9410000  72.4240000  67.2830000  26.8230000  71.8150000
  69.0440000  26.2990000  71.0230000  65.8620000  23.7030000  79.8860000
  64.8520000  24.8300000  78.5400000  68.0650000  22.9520000  79.1220000
  70.2610000  25.5850000  71.2520000  71.2870000  24.4720000  72.5610000
  68.9050000  26.7440000  70.1950000  64.8770000  23.7200000  80.9230000
  67.0920000  22.9790000  80.1120000  68.8660000  22.4640000  79.2740000
  70.9280000  25.5610000  70.5760000  65.0890000  23.0770000  82.0950000
  64.0630000  24.1890000  80.7870000  67.2640000  22.3190000  81.3660000
  66.3060000  22.3620000  82.3240000  64.4220000  23.1000000  82.7710000
  68.0670000  21.8380000  81.5320000  66.4450000  21.9170000  83.1520000
  66.1870000  19.6040000  19.2220000  66.0160000  20.2810000  17.9980000
  65.2110000  19.6090000  20.2260000  67.4310000  18.8750000  19.4540000
  65.2150000  20.7680000  17.8460000  66.9890000  20.2530000  17.0080000
  64.3970000  20.0820000  20.0950000  65.3810000  18.9290000  21.4390000
  68.4150000  18.8700000  18.4350000  67.6010000  18.1950000  20.6670000
  68.2190000  19.5290000  17.2340000  66.8170000  20.9130000  15.7540000
  64.3970000  18.9340000  22.4580000  66.6260000  18.2000000  21.6710000
  69.2290000  18.4020000  18.5800000  68.4150000  17.7220000  20.7980000
  69.2040000  19.5120000  16.1970000  66.0140000  21.3940000  15.5880000
  67.7750000  20.8700000  14.7950000  64.5930000  18.2750000  23.6580000
  63.5830000  19.4020000  22.3130000  66.7960000  17.5230000  22.8950000
  68.9920000  20.1560000  15.0250000  70.0180000  19.0430000  16.3330000
  67.6360000  21.3150000  13.9670000  63.6080000  18.2910000  24.6960000
  65.8230000  17.5500000  23.8850000  67.5970000  17.0360000  23.0470000
  69.6590000  20.1330000  14.3480000  63.8200000  17.6480000  25.8680000
  62.7940000  18.7600000  24.5590000  65.9950000  16.8900000  25.1380000
  65.0380000  16.9340000  26.0970000  63.1530000  17.6710000  26.5440000
  66.7980000  16.4090000  25.3040000  65.1760000  16.4880000  26.9250000
  67.1270000  21.4770000  35.7270000  67.2970000  20.8000000  36.9520000
  68.1030000  21.4720000  34.7240000  65.8830000  22.2060000  35.4960000
  68.0980000  20.3120000  37.1040000  66.3250000  20.8270000  37.9410000
  68.9160000  20.9990000  34.8550000  67.9320000  22.1520000  33.5110000
  64.8980000  22.2110000  36.5150000  65.7120000  22.8860000  34.2820000
  65.0940000  21.5510000  37.7150000  66.4960000  20.1670000  39.1950000
  68.9160000  22.1470000  32.4920000  66.6880000  22.8810000  33.2790000
  64.0840000  22.6780000  36.3700000  64.8980000  23.3580000  34.1520000
  64.1100000  21.5680000  38.7520000  67.2990000  19.6860000  39.3610000
  65.5390000  20.2100000  40.1540000  68.7210000  22.8060000  31.2910000
  69.7310000  21.6790000  32.6360000  66.5170000  23.5580000  32.0540000
  64.3210000  20.9250000  39.9250000  63.2950000  22.0370000  38.6160000
  65.6770000  19.7650000  40.9820000  69.7050000  22.7890000  30.2540000
  67.4900000  23.5300000  31.0650000  65.7160000  24.0450000  31.9030000
  63.6540000  20.9480000  40.6010000  69.4940000  23.4330000  29.0810000
  70.5200000  22.3200000  30.3900000  67.3180000  24.1900000  29.8110000
  68.2760000  24.1470000  28.8520000  70.1600000  23.4090000  28.4050000
  66.5160000  24.6710000  29.6450000  68.1370000  24.5920000  28.0240000
  68.1920000  32.7110000  75.4490000  68.0210000  33.3880000  74.2250000
  67.2160000  32.7160000  76.4530000  69.4360000  31.9820000  75.6810000
  67.2200000  33.8760000  74.0730000  68.9940000  33.3610000  73.2350000
  66.4020000  33.1890000  76.3220000  67.3860000  32.0360000  77.6660000
  70.4200000  31.9770000  74.6620000  69.6060000  31.3020000  76.8940000
  70.2240000  32.6360000  73.4620000  68.8220000  34.0210000  71.9810000
  66.4020000  32.0410000  78.6850000  68.6310000  31.3070000  77.8980000
  71.2340000  31.5100000  74.8070000  70.4200000  30.8300000  77.0250000
  71.2090000  32.6200000  72.4240000  68.0190000  34.5020000  71.8150000
  69.7800000  33.9780000  71.0230000  66.5980000  31.3820000  79.8860000
  65.5880000  32.5090000  78.5400000  68.8010000  30.6300000  79.1220000
  70.9980000  33.2630000  71.2520000  72.0230000  32.1510000  72.5610000
  69.6410000  34.4230000  70.1950000  65.6140000  31.3990000  80.9230000
  67.8280000  30.6580000  80.1120000  69.6020000  30.1430000  79.2740000
  71.6640000  33.2400000  70.5760000  65.8250000  30.7550000  82.0950000
  64.7990000  31.8680000  80.7870000  68.0000000  29.9980000  81.3660000
  67.0430000  30.0410000  82.3240000  65.1580000  30.7790000  82.7710000
  68.8030000  29.5170000  81.5320000  67.1810000  29.5960000  83.1520000
  65.6850000  16.3270000   5.1650000  65.5150000  17.0040000   3.9410000
  64.7100000  16.3320000   6.1690000  66.9290000  15.5980000   5.3970000
  64.7140000  17.4910000   3.7890000  66.4870000  16.9770000   2.9510000
  63.8960000  16.8050000   6.0380000  64.8800000  15.6520000   7.3820000
  67.9140000  15.5930000   4.3780000  67.1000000  14.9180000   6.6100000
  67.7180000  16.2520000   3.1770000  66.3160000  17.6360000   1.6970000
  63.8960000  15.6570000   8.4010000  66.1240000  14.9230000   7.6140000
  68.7280000  15.1250000   4.5230000  67.9140000  14.4450000   6.7410000
  68.7020000  16.2350000   2.1400000  65.5130000  18.1180000   1.5310000
  67.2730000  17.5930000   0.7390000  64.0910000  14.9980000   9.6010000
  63.0810000  16.1250000   8.2560000  66.2950000  14.2460000   8.8380000
  68.4910000  16.8790000   0.9680000  69.5170000  15.7670000   2.2760000
  67.1350000  18.0390000  -0.0890000  63.1070000  15.0150000  10.6390000
  65.3220000  14.2740000   9.8280000  67.0960000  13.7590000   8.9900000
  69.1580000  16.8560000   0.2920000  63.3180000  14.3710000  11.8110000
  62.2930000  15.4840000  10.5020000  65.4940000  13.6140000  11.0820000
  64.5360000  13.6570000  12.0400000  62.6520000  14.3940000  12.4870000
  66.2970000  13.1320000  11.2470000  64.6750000  13.2120000  12.8680000
  67.1890000  26.1580000  47.3360000  67.0190000  26.8340000  46.1110000
  66.2130000  26.1630000  48.3390000  68.4330000  25.4280000  47.5670000
  66.2170000  27.3220000  45.9590000  67.9910000  26.8070000  45.1220000
  65.4000000  26.6350000  48.2080000  66.3840000  25.4830000  49.5520000
  69.4180000  25.4240000  46.5480000  68.6040000  24.7480000  48.7810000
  69.2220000  26.0830000  45.3480000  67.8190000  27.4670000  43.8680000
  65.4000000  25.4880000  50.5710000  67.6280000  24.7540000  49.7840000
  70.2320000  24.9560000  46.6930000  69.4170000  24.2760000  48.9110000
  70.2060000  26.0660000  44.3110000  67.0170000  27.9480000  43.7020000
  68.7770000  27.4240000  42.9090000  65.5950000  24.8280000  51.7720000
  64.5850000  25.9550000  50.4270000  67.7980000  24.0770000  51.0090000
  69.9950000  26.7100000  43.1380000  71.0210000  25.5970000  44.4470000
  68.6390000  27.8690000  42.0810000  64.6110000  24.8450000  52.8090000
  66.8260000  24.1040000  51.9980000  68.6000000  23.5890000  51.1600000
  70.6610000  26.6860000  42.4620000  64.8220000  24.2020000  53.9820000
  63.7960000  25.3140000  52.6730000  66.9980000  23.4440000  53.2520000
  66.0400000  23.4870000  54.2110000  64.1560000  24.2250000  54.6580000
  67.8000000  22.9630000  53.4180000  66.1780000  23.0420000  55.0390000
  68.1290000  28.0300000  63.8410000  68.3000000  27.3540000  65.0650000
  69.1050000  28.0250000  62.8370000  66.8850000  28.7590000  63.6090000
  69.1010000  26.8660000  65.2170000  67.3270000  27.3810000  66.0550000
  69.9190000  27.5530000  62.9680000  68.9340000  28.7050000  61.6240000
  65.9010000  28.7640000  64.6280000  66.7150000  29.4400000  62.3960000
  66.0960000  28.1050000  65.8290000  67.4990000  26.7210000  67.3090000
  69.9190000  28.7000000  60.6050000  67.6900000  29.4340000  61.3920000
  65.0870000  29.2320000  64.4830000  65.9010000  29.9120000  62.2650000
  65.1120000  28.1220000  66.8660000  68.3020000  26.2400000  67.4750000
  66.5410000  26.7640000  68.2680000  69.7230000  29.3600000  59.4050000
  70.7330000  28.2330000  60.7500000  67.5200000  30.1110000  60.1680000
  65.3230000  27.4780000  68.0380000  64.2980000  28.5910000  66.7300000
  66.6800000  26.3190000  69.0960000  70.7070000  29.3430000  58.3670000
  68.4930000  30.0840000  59.1780000  66.7190000  30.5990000  60.0160000
  64.6570000  27.5020000  68.7150000  70.4960000  29.9860000  57.1950000
  71.5220000  28.8740000  58.5040000  68.3210000  30.7440000  57.9250000
  69.2780000  30.7010000  56.9660000  71.1630000  29.9630000  56.5190000
  67.5180000  31.2250000  57.7590000  69.1400000  31.1460000  56.1380000
  68.6930000  35.9880000  89.5060000  68.5220000  36.6650000  88.2820000
  67.7170000  35.9930000  90.5100000  69.9370000  35.2590000  89.7380000
  67.7210000  37.1520000  88.1300000  69.4950000  36.6380000  87.2920000
  66.9030000  36.4660000  90.3790000  67.8880000  35.3130000  91.7230000
  70.9210000  35.2540000  88.7190000  70.1080000  34.5790000  90.9510000
  70.7260000  35.9130000  87.5180000  69.3230000  37.2970000  86.0380000
  66.9030000  35.3180000  92.7420000  69.1320000  34.5840000  91.9550000
  71.7360000  34.7860000  88.8640000  70.9210000  34.1060000  91.0820000
  71.7100000  35.8960000  86.4810000  68.5210000  37.7790000  85.8720000
  70.2810000  37.2540000  85.0800000  67.0990000  34.6590000  93.9420000
  66.0890000  35.7860000  92.5970000  69.3020000  33.9070000  93.1790000
  71.4990000  36.5400000  85.3090000  72.5250000  35.4280000  86.6170000
  70.1420000  37.7000000  84.2520000  66.1150000  34.6760000  94.9800000
  68.3300000  33.9340000  94.1690000  70.1030000  33.4200000  93.3310000
  72.1650000  36.5170000  84.6320000  66.3260000  34.0320000  96.1520000
  65.3000000  35.1450000  94.8430000  68.5010000  33.2750000  95.4230000
  67.5440000  33.3180000  96.3810000  65.6590000  34.0550000  96.8280000
  69.3040000  32.7930000  95.5880000  67.6820000  32.8730000  97.2090000
  68.9280000  40.3900000  75.4490000  68.7570000  41.0670000  74.2250000
  67.9520000  40.3950000  76.4530000  70.1720000  39.6610000  75.6810000
  67.9560000  41.5540000  74.0730000  69.7300000  41.0390000  73.2350000
  67.1380000  40.8680000  76.3220000  68.1230000  39.7150000  77.6660000
  71.1560000  39.6560000  74.6620000  70.3420000  38.9810000  76.8940000
  70.9610000  40.3150000  73.4620000  69.5580000  41.6990000  71.9810000
  67.1380000  39.7200000  78.6850000  69.3670000  38.9860000  77.8980000
  71.9710000  39.1880000  74.8070000  71.1560000  38.5080000  77.0250000
  71.9450000  40.2980000  72.4240000  68.7550000  42.1800000  71.8150000
  70.5160000  41.6560000  71.0230000  67.3340000  39.0610000  79.8860000
  66.3240000  40.1870000  78.5400000  69.5370000  38.3090000  79.1220000
  71.7340000  40.9420000  71.2520000  72.7600000  39.8290000  72.5610000
  70.3770000  42.1010000  70.1950000  66.3500000  39.0770000  80.9230000
  68.5650000  38.3360000  80.1120000  70.3380000  37.8220000  79.2740000
  72.4000000  40.9190000  70.5760000  66.5610000  38.4340000  82.0950000
  65.5350000  39.5460000  80.7870000  68.7360000  37.6760000  81.3660000
  67.7790000  37.7190000  82.3240000  65.8940000  38.4570000  82.7710000
  69.5390000  37.1950000  81.5320000  67.9170000  37.2740000  83.1520000
  67.8630000  29.1550000  35.7270000  68.0330000  28.4790000  36.9520000
  68.8390000  29.1500000  34.7240000  66.6190000  29.8840000  35.4960000
  68.8350000  27.9910000  37.1040000  67.0610000  28.5060000  37.9410000
  69.6520000  28.6780000  34.8550000  68.6680000  29.8300000  33.5110000
  65.6340000  29.8890000  36.5150000  66.4480000  30.5650000  34.2820000
  65.8300000  29.2300000  37.7150000  67.2330000  27.8460000  39.1950000
  69.6520000  29.8250000  32.4920000  67.4240000  30.5590000  33.2790000
  64.8200000  30.3570000  36.3700000  65.6350000  31.0370000  34.1520000
  64.8460000  29.2470000  38.7520000  68.0350000  27.3650000  39.3610000
  66.2750000  27.8890000  40.1540000  69.4570000  30.4850000  31.2910000
  70.4670000  29.3580000  32.6360000  67.2540000  31.2360000  32.0540000
  65.0570000  28.6030000  39.9250000  64.0310000  29.7160000  38.6160000
  66.4130000  27.4440000  40.9820000  70.4410000  30.4680000  30.2540000
  68.2260000  31.2090000  31.0650000  66.4520000  31.7240000  31.9030000
  64.3910000  28.6270000  40.6010000  70.2300000  31.1110000  29.0810000
  71.2560000  29.9990000  30.3900000  68.0540000  31.8690000  29.8110000
  69.0120000  31.8260000  28.8520000  70.8960000  31.0880000  28.4050000
  67.2520000  32.3500000  29.6450000  68.8740000  32.2710000  28.0240000
  66.4210000  24.0060000   5.1650000  66.2510000  24.6820000   3.9410000
  65.4460000  24.0110000   6.1690000  67.6660000  23.2770000   5.3970000
  65.4500000  25.1700000   3.7890000  67.2240000  24.6550000   2.9510000
  64.6320000  24.4830000   6.0380000  65.6160000  23.3310000   7.3820000
  68.6500000  23.2720000   4.3780000  67.8360000  22.5960000   6.6100000
  68.4540000  23.9310000   3.1770000  67.0520000  25.3150000   1.6970000
  64.6320000  23.3360000   8.4010000  66.8600000  22.6020000   7.6140000
  69.4640000  22.8040000   4.5230000  68.6500000  22.1240000   6.7410000
  69.4390000  23.9140000   2.1400000  66.2490000  25.7960000   1.5310000
  68.0090000  25.2720000   0.7390000  64.8280000  22.6760000   9.6010000
  63.8180000  23.8030000   8.2560000  67.0310000  21.9250000   8.8380000
  69.2270000  24.5580000   0.9680000  70.2530000  23.4450000   2.2760000
  67.8710000  25.7170000  -0.0890000  63.8430000  22.6930000  10.6390000
  66.0580000  21.9520000   9.8280000  67.8320000  21.4370000   8.9900000
  69.8940000  24.5340000   0.2920000  64.0550000  22.0500000  11.8110000
  63.0290000  23.1620000  10.5020000  66.2300000  21.2920000  11.0820000
  65.2720000  21.3350000  12.0400000  63.3880000  22.0730000  12.4870000
  67.0330000  20.8110000  11.2470000  65.4110000  20.8900000  12.8680000
  67.3620000  25.8780000  21.6710000  67.5320000  25.2020000  22.8950000
  68.3370000  25.8730000  20.6670000  66.1180000  26.6080000  21.4390000
  68.3330000  24.7140000  23.0470000  66.5590000  25.2290000  23.8850000
  69.1510000  25.4010000  20.7980000  68.1670000  26.5530000  19.4540000
  65.1330000  26.6120000  22.4580000  65.9470000  27.2880000  20.2260000
  65.3290000  25.9530000  23.6580000  66.7310000  24.5690000  25.1380000
  69.1510000  26.5480000  18.4350000  66.9230000  27.2830000  19.2220000
  64.3190000  27.0800000  22.3130000  65.1330000  27.7600000  20.0950000
  64.3450000  25.9700000  24.6960000  67.5340000  24.0880000  25.3040000
  65.7740000  24.6120000  26.0970000  68.9560000  27.2080000  17.2340000
  69.9650000  26.0810000  18.5800000  66.7520000  27.9590000  17.9980000
  64.5560000  25.3270000  25.8680000  63.5300000  26.4390000  24.5590000
  65.9120000  24.1670000  26.9250000  69.9400000  27.1910000  16.1970000
  67.7250000  27.9320000  17.0080000  65.9510000  28.4470000  17.8460000
  63.8890000  25.3500000  26.5440000  69.7290000  27.8340000  15.0250000
  70.7540000  26.7220000  16.3330000  67.5530000  28.5920000  15.7540000
  68.5110000  28.5490000  14.7950000  70.3950000  27.8110000  14.3480000
  66.7500000  29.0730000  15.5880000  68.3720000  28.9940000  13.9670000
  68.3640000  32.4320000  49.7840000  68.5350000  31.7550000  51.0090000
  69.3400000  32.4270000  48.7810000  67.1200000  33.1610000  49.5520000
  69.3360000  31.2680000  51.1600000  67.5620000  31.7830000  51.9980000
  70.1540000  31.9540000  48.9110000  69.1690000  33.1070000  47.5670000
  66.1360000  33.1660000  50.5710000  66.9490000  33.8410000  48.3390000
  66.3310000  32.5070000  51.7720000  67.7340000  31.1230000  53.2520000
  70.1540000  33.1020000  46.5480000  67.9250000  33.8360000  47.3360000
  65.3210000  33.6340000  50.4270000  66.1360000  34.3140000  48.2080000
  65.3470000  32.5240000  52.8090000  68.5360000  30.6420000  53.4180000
  66.7760000  31.1660000  54.2110000  69.9580000  33.7610000  45.3480000
  70.9680000  32.6340000  46.6930000  67.7550000  34.5130000  46.1110000
  65.5580000  31.8800000  53.9820000  64.5320000  32.9930000  52.6730000
  66.9150000  30.7210000  55.0390000  70.9420000  33.7450000  44.3110000
  68.7270000  34.4860000  45.1220000  66.9540000  35.0000000  45.9590000
  64.8920000  31.9030000  54.6580000  70.7310000  34.3880000  43.1380000
  71.7570000  33.2760000  44.4470000  68.5560000  35.1460000  43.8680000
  69.5130000  35.1030000  42.9090000  71.3980000  34.3650000  42.4620000
  67.7530000  35.6270000  43.7020000  69.3750000  35.5480000  42.0810000
  68.4270000  37.1130000  61.3920000  68.2560000  37.7900000  60.1680000
  67.4510000  37.1180000  62.3960000  69.6710000  36.3840000  61.6240000
  67.4550000  38.2770000  60.0160000  69.2290000  37.7630000  59.1780000
  66.6370000  37.5910000  62.2650000  67.6210000  36.4380000  63.6090000
  70.6550000  36.3790000  60.6050000  69.8410000  35.7040000  62.8370000
  70.4590000  37.0380000  59.4050000  69.0570000  38.4220000  57.9250000
  66.6370000  36.4430000  64.6280000  68.8650000  35.7090000  63.8410000
  71.4690000  35.9110000  60.7500000  70.6550000  35.2310000  62.9680000
  71.4440000  37.0210000  58.3670000  68.2540000  38.9040000  57.7590000
  70.0150000  38.3790000  56.9660000  66.8330000  35.7840000  65.8290000
  65.8230000  36.9110000  64.4830000  69.0360000  35.0320000  65.0650000
  71.2320000  37.6650000  57.1950000  72.2580000  36.5530000  58.5040000
  69.8760000  38.8240000  56.1380000  65.8480000  35.8010000  66.8660000
  68.0630000  35.0590000  66.0550000  69.8370000  34.5450000  65.2170000
  71.8990000  37.6420000  56.5190000  66.0600000  35.1570000  68.0380000
  65.0340000  36.2690000  66.7300000  68.2350000  34.4000000  67.3090000
  67.2770000  34.4430000  68.2680000  65.3930000  35.1800000  68.7150000
  69.0380000  33.9180000  67.4750000  67.4160000  33.9980000  69.0960000
  69.4290000  43.6670000  89.5060000  69.2590000  44.3430000  88.2820000
  68.4530000  43.6720000  90.5100000  70.6730000  42.9380000  89.7380000
  68.4570000  44.8310000  88.1300000  70.2310000  44.3160000  87.2920000
  67.6400000  44.1440000  90.3790000  68.6240000  42.9920000  91.7230000
  71.6570000  42.9330000  88.7190000  70.8440000  42.2570000  90.9510000
  71.4620000  43.5920000  87.5180000  70.0590000  44.9760000  86.0380000
  67.6390000  42.9970000  92.7420000  69.8680000  42.2630000  91.9550000
  72.4720000  42.4650000  88.8640000  71.6570000  41.7850000  91.0820000
  72.4460000  43.5750000  86.4810000  69.2570000  45.4570000  85.8720000
  71.0170000  44.9330000  85.0800000  67.8350000  42.3370000  93.9420000
  66.8250000  43.4640000  92.5970000  70.0380000  41.5860000  93.1790000
  72.2350000  44.2190000  85.3090000  73.2610000  43.1060000  86.6170000
  70.8790000  45.3780000  84.2520000  66.8510000  42.3540000  94.9800000
  69.0660000  41.6130000  94.1690000  70.8400000  41.0980000  93.3310000
  72.9010000  44.1950000  84.6320000  67.0620000  41.7110000  96.1520000
  66.0360000  42.8230000  94.8430000  69.2380000  40.9530000  95.4230000
  68.2800000  40.9960000  96.3810000  66.3960000  41.7340000  96.8280000
  70.0400000  40.4720000  95.5880000  68.4180000  40.5510000  97.2090000
  67.6590000  34.9610000  19.2220000  67.4880000  35.6380000  17.9980000
  66.6830000  34.9660000  20.2260000  68.9030000  34.2320000  19.4540000
  66.6870000  36.1250000  17.8460000  68.4610000  35.6110000  17.0080000
  65.8690000  35.4390000  20.0950000  66.8540000  34.2860000  21.4390000
  69.8870000  34.2270000  18.4350000  69.0740000  33.5520000  20.6670000
  69.6920000  34.8860000  17.2340000  68.2890000  36.2710000  15.7540000
  65.8690000  34.2910000  22.4580000  68.0980000  33.5570000  21.6710000
  70.7020000  33.7590000  18.5800000  69.8870000  33.0790000  20.7980000
  70.6760000  34.8690000  16.1970000  67.4870000  36.7520000  15.5880000
  69.2470000  36.2270000  14.7950000  66.0650000  33.6320000  23.6580000
  65.0550000  34.7590000  22.3130000  68.2680000  32.8800000  22.8950000
  70.4650000  35.5130000  15.0250000  71.4910000  34.4010000  16.3330000
  69.1080000  36.6730000  13.9670000  65.0810000  33.6490000  24.6960000
  67.2960000  32.9080000  23.8850000  69.0690000  32.3930000  23.0470000
  71.1310000  35.4900000  14.3480000  65.2920000  33.0050000  25.8680000
  64.2660000  34.1180000  24.5590000  67.4670000  32.2480000  25.1380000
  66.5100000  32.2910000  26.0970000  64.6250000  33.0280000  26.5440000
  68.2700000  31.7670000  25.3040000  66.6480000  31.8460000  26.9250000
  68.5990000  36.8340000  35.7270000  68.7690000  36.1570000  36.9520000
  69.5750000  36.8290000  34.7240000  67.3550000  37.5630000  35.4960000
  69.5710000  35.6700000  37.1040000  67.7970000  36.1840000  37.9410000
  70.3880000  36.3560000  34.8550000  69.4040000  37.5090000  33.5110000
  66.3710000  37.5680000  36.5150000  67.1840000  38.2430000  34.2820000
  66.5660000  36.9090000  37.7150000  67.9690000  35.5250000  39.1950000
  70.3890000  37.5040000  32.4920000  68.1600000  38.2380000  33.2790000
  65.5560000  38.0360000  36.3700000  66.3710000  38.7160000  34.1520000
  65.5820000  36.9260000  38.7520000  68.7710000  35.0430000  39.3610000
  67.0110000  35.5680000  40.1540000  70.1930000  38.1630000  31.2910000
  71.2030000  37.0360000  32.6360000  67.9900000  38.9150000  32.0540000
  65.7930000  36.2820000  39.9250000  64.7670000  37.3940000  38.6160000
  67.1490000  35.1220000  40.9820000  71.1770000  38.1460000  30.2540000
  68.9620000  38.8870000  31.0650000  67.1880000  39.4020000  31.9030000
  65.1270000  36.3050000  40.6010000  70.9660000  38.7900000  29.0810000
  71.9920000  37.6770000  30.3900000  68.7900000  39.5470000  29.8110000
  69.7480000  39.5040000  28.8520000  71.6320000  38.7670000  28.4050000
  67.9880000  40.0290000  29.6450000  69.6100000  39.9490000  28.0240000
  69.1000000  40.1110000  49.7840000  69.2710000  39.4340000  51.0090000
  70.0760000  40.1060000  48.7810000  67.8560000  40.8400000  49.5520000
  70.0720000  38.9460000  51.1600000  68.2980000  39.4610000  51.9980000
  70.8900000  39.6330000  48.9110000  69.9050000  40.7860000  47.5670000
  66.8720000  40.8450000  50.5710000  67.6860000  41.5200000  48.3390000
  67.0670000  40.1860000  51.7720000  68.4700000  38.8010000  53.2520000
  70.8900000  40.7810000  46.5480000  68.6610000  41.5150000  47.3360000
  66.0580000  41.3120000  50.4270000  66.8720000  41.9920000  48.2080000
  66.0830000  40.2020000  52.8090000  69.2730000  38.3200000  53.4180000
  67.5120000  38.8440000  54.2110000  70.6940000  41.4400000  45.3480000
  71.7040000  40.3130000  46.6930000  68.4910000  42.1920000  46.1110000
  66.2940000  39.5590000  53.9820000  65.2690000  40.6710000  52.6730000
  67.6510000  38.3990000  55.0390000  71.6780000  41.4230000  44.3110000
  69.4640000  42.1640000  45.1220000  67.6900000  42.6790000  45.9590000
  65.6280000  39.5820000  54.6580000  71.4670000  42.0670000  43.1380000
  72.4930000  40.9540000  44.4470000  69.2920000  42.8240000  43.8680000
  70.2490000  42.7810000  42.9090000  72.1340000  42.0430000  42.4620000
  68.4890000  43.3050000  43.7020000  70.1110000  43.2260000  42.0810000
  69.6020000  43.3880000  63.8410000  69.7720000  42.7110000  65.0650000
  70.5770000  43.3820000  62.8370000  68.3570000  44.1170000  63.6090000
  70.5730000  42.2230000  65.2170000  68.7990000  42.7380000  66.0550000
  71.3910000  42.9100000  62.9680000  70.4070000  44.0620000  61.6240000
  67.3730000  44.1220000  64.6280000  68.1870000  44.7970000  62.3960000
  67.5690000  43.4620000  65.8290000  68.9710000  42.0780000  67.3090000
  71.3910000  44.0580000  60.6050000  69.1630000  44.7920000  61.3920000
  66.5590000  44.5890000  64.4830000  67.3730000  45.2690000  62.2650000
  66.5840000  43.4790000  66.8660000  69.7740000  41.5970000  67.4750000
  68.0140000  42.1210000  68.2680000  71.1950000  44.7170000  59.4050000
  72.2050000  43.5900000  60.7500000  68.9920000  45.4680000  60.1680000
  66.7960000  42.8360000  68.0380000  65.7700000  43.9480000  66.7300000
  68.1520000  41.6760000  69.0960000  72.1800000  44.7000000  58.3670000
  69.9650000  45.4410000  59.1780000  68.1910000  45.9560000  60.0160000
  66.1290000  42.8590000  68.7150000  71.9680000  45.3440000  57.1950000
  72.9940000  44.2310000  58.5040000  69.7930000  46.1010000  57.9250000
  70.7510000  46.0580000  56.9660000  72.6350000  45.3200000  56.5190000
  68.9900000  46.5820000  57.7590000  70.6120000  46.5030000  56.1380000
  70.1030000  46.6640000  77.8980000  70.2730000  45.9880000  79.1220000
  71.0790000  46.6590000  76.8940000  68.8590000  47.3940000  77.6660000
  71.0740000  45.5000000  79.2740000  69.3010000  46.0150000  80.1120000
  71.8920000  46.1870000  77.0250000  70.9080000  47.3390000  75.6810000
  67.8740000  47.3980000  78.6850000  68.6880000  48.0740000  76.4530000
  68.0700000  46.7390000  79.8860000  69.4720000  45.3550000  81.3660000
  71.8920000  47.3340000  74.6620000  69.6640000  48.0680000  75.4490000
  67.0600000  47.8660000  78.5400000  67.8740000  48.5460000  76.3220000
  67.0860000  46.7560000  80.9230000  70.2750000  44.8740000  81.5320000
  68.5150000  45.3980000  82.3240000  71.6970000  47.9940000  73.4620000
  72.7070000  46.8670000  74.8070000  69.4930000  48.7450000  74.2250000
  67.2970000  46.1120000  82.0950000  66.2710000  47.2250000  80.7870000
  68.6530000  44.9530000  83.1520000  72.6810000  47.9770000  72.4240000
  70.4660000  48.7180000  73.2350000  68.6920000  49.2330000  74.0730000
  66.6300000  46.1360000  82.7710000  72.4700000  48.6200000  71.2520000
  73.4960000  47.5080000  72.5610000  70.2940000  49.3780000  71.9810000
  71.2520000  49.3350000  71.0230000  73.1360000  48.5970000  70.5760000
  69.4920000  49.8590000  71.8150000  71.1130000  49.7800000  70.1950000
  70.1650000  51.3450000  89.5060000  69.9950000  52.0220000  88.2820000
  69.1890000  51.3500000  90.5100000  71.4090000  50.6160000  89.7380000
  69.1940000  52.5100000  88.1300000  70.9670000  51.9950000  87.2920000
  68.3760000  51.8230000  90.3790000  69.3600000  50.6700000  91.7230000
  72.3940000  50.6110000  88.7190000  71.5800000  49.9360000  90.9510000
  72.1980000  51.2710000  87.5180000  70.7950000  52.6550000  86.0380000
  68.3760000  50.6750000  92.7420000  70.6040000  49.9410000  91.9550000
  73.2080000  50.1440000  88.8640000  72.3930000  49.4640000  91.0820000
  73.1820000  51.2540000  86.4810000  69.9930000  53.1360000  85.8720000
  71.7530000  52.6120000  85.0800000  68.5710000  50.0160000  93.9420000
  67.5610000  51.1430000  92.5970000  70.7740000  49.2640000  93.1790000
  72.9710000  51.8970000  85.3090000  73.9970000  50.7850000  86.6170000
  71.6150000  53.0570000  84.2520000  67.5870000  50.0330000  94.9800000
  69.8020000  49.2920000  94.1690000  71.5760000  48.7770000  93.3310000
  73.6380000  51.8740000  84.6320000  67.7980000  49.3890000  96.1520000
  66.7720000  50.5020000  94.8430000  69.9740000  48.6320000  95.4230000
  69.0160000  48.6750000  96.3810000  67.1320000  49.4130000  96.8280000
  70.7760000  48.1510000  95.5880000  69.1540000  48.2300000  97.2090000
  67.5960000  30.2800000   7.6140000  67.7670000  29.6030000   8.8380000
  68.5720000  30.2750000   6.6100000  66.3520000  31.0090000   7.3820000
  68.5680000  29.1160000   8.9900000  66.7940000  29.6310000   9.8280000
  69.3860000  29.8030000   6.7410000  68.4020000  30.9550000   5.3970000
  65.3680000  31.0140000   8.4010000  66.1820000  31.6890000   6.1690000
  65.5640000  30.3550000   9.6010000  66.9660000  28.9710000  11.0820000
  69.3860000  30.9500000   4.3780000  67.1580000  31.6840000   5.1650000
  64.5540000  31.4820000   8.2560000  65.3680000  32.1620000   6.0380000
  64.5790000  30.3720000  10.6390000  67.7690000  28.4900000  11.2470000
  66.0080000  29.0140000  12.0400000  69.1900000  31.6100000   3.1770000
  70.2000000  30.4830000   4.5230000  66.9870000  32.3610000   3.9410000
  64.7910000  29.7280000  11.8110000  63.7650000  30.8410000  10.5020000
  66.1470000  28.5690000  12.8680000  70.1750000  31.5930000   2.1400000
  67.9600000  32.3340000   2.9510000  66.1860000  32.8490000   3.7890000
  64.1240000  29.7520000  12.4870000  69.9630000  32.2360000   0.9680000
  70.9890000  31.1240000   2.2760000  67.7880000  32.9940000   1.6970000
  68.7460000  32.9510000   0.7390000  70.6300000  32.2130000   0.2920000
  66.9850000  33.4750000   1.5310000  68.6070000  33.3960000  -0.0890000
  68.8340000  41.2360000  21.6710000  69.0040000  40.5590000  22.8950000
  69.8100000  41.2300000  20.6670000  67.5900000  41.9650000  21.4390000
  69.8060000  40.0710000  23.0470000  68.0320000  40.5860000  23.8850000
  70.6230000  40.7580000  20.7980000  69.6390000  41.9110000  19.4540000
  66.6050000  41.9700000  22.4580000  67.4190000  42.6450000  20.2260000
  66.8010000  41.3100000  23.6580000  68.2040000  39.9260000  25.1380000
  70.6230000  41.9060000  18.4350000  68.3950000  42.6400000  19.2220000
  65.7910000  42.4370000  22.3130000  66.6060000  43.1170000  20.0950000
  65.8170000  41.3270000  24.6960000  69.0060000  39.4450000  25.3040000
  67.2460000  39.9690000  26.0970000  70.4280000  42.5650000  17.2340000
  71.4380000  41.4380000  18.5800000  68.2250000  43.3160000  17.9980000
  66.0280000  40.6840000  25.8680000  65.0020000  41.7960000  24.5590000
  67.3840000  39.5240000  26.9250000  71.4120000  42.5480000  16.1970000
  69.1970000  43.2890000  17.0080000  67.4230000  43.8040000  17.8460000
  65.3620000  40.7070000  26.5440000  71.2010000  43.1920000  15.0250000
  72.2270000  42.0790000  16.3330000  69.0250000  43.9490000  15.7540000
  69.9830000  43.9060000  14.7950000  71.8670000  43.1680000  14.3480000
  68.2230000  44.4300000  15.5880000  69.8450000  44.3510000  13.9670000
  69.3350000  44.5120000  35.7270000  69.5060000  43.8360000  36.9520000
  70.3110000  44.5070000  34.7240000  68.0910000  45.2420000  35.4960000
  70.3070000  43.3480000  37.1040000  68.5330000  43.8630000  37.9410000
  71.1250000  44.0350000  34.8550000  70.1400000  45.1870000  33.5110000
  67.1070000  45.2470000  36.5150000  67.9200000  45.9220000  34.2820000
  67.3020000  44.5870000  37.7150000  68.7050000  43.2030000  39.1950000
  71.1250000  45.1830000  32.4920000  68.8960000  45.9170000  33.2790000
  66.2920000  45.7140000  36.3700000  67.1070000  46.3940000  34.1520000
  66.3180000  44.6040000  38.7520000  69.5070000  42.7220000  39.3610000
  67.7470000  43.2460000  40.1540000  70.9290000  45.8420000  31.2910000
  71.9390000  44.7150000  32.6360000  68.7260000  46.5930000  32.0540000
  66.5290000  43.9610000  39.9250000  65.5030000  45.0730000  38.6160000
  67.8860000  42.8010000  40.9820000  71.9130000  45.8250000  30.2540000
  69.6980000  46.5660000  31.0650000  67.9250000  47.0810000  31.9030000
  65.8630000  43.9840000  40.6010000  71.7020000  46.4680000  29.0810000
  72.7280000  45.3560000  30.3900000  69.5270000  47.2260000  29.8110000
  70.4840000  47.1830000  28.8520000  72.3690000  46.4450000  28.4050000
  68.7240000  47.7070000  29.6450000  70.3460000  47.6280000  28.0240000
  69.3970000  49.1930000  47.3360000  69.2270000  49.8700000  46.1110000
  68.4220000  49.1990000  48.3390000  70.6420000  48.4640000  47.5670000
  68.4260000  50.3580000  45.9590000  70.2000000  49.8430000  45.1220000
  67.6080000  49.6710000  48.2080000  68.5920000  48.5180000  49.5520000
  71.6260000  48.4590000  46.5480000  70.8120000  47.7840000  48.7810000
  71.4300000  49.1190000  45.3480000  70.0280000  50.5030000  43.8680000
  67.6080000  48.5230000  50.5710000  69.8360000  47.7890000  49.7840000
  72.4400000  47.9920000  46.6930000  71.6260000  47.3120000  48.9110000
  72.4150000  49.1020000  44.3110000  69.2250000  50.9840000  43.7020000
  70.9850000  50.4600000  42.9090000  67.8040000  47.8640000  51.7720000
  66.7940000  48.9910000  50.4270000  70.0070000  47.1130000  51.0090000
  72.2030000  49.7450000  43.1380000  73.2290000  48.6330000  44.4470000
  70.8470000  50.9050000  42.0810000  66.8190000  47.8810000  52.8090000
  69.0340000  47.1400000  51.9980000  70.8080000  46.6250000  51.1600000
  72.8700000  49.7220000  42.4620000  67.0310000  47.2370000  53.9820000
  66.0050000  48.3500000  52.6730000  69.2060000  46.4800000  53.2520000
  68.2480000  46.5230000  54.2110000  66.3640000  47.2610000  54.6580000
  70.0090000  45.9990000  53.4180000  68.3870000  46.0780000  55.0390000
  68.3330000  37.9590000   7.6140000  68.5030000  37.2820000   8.8380000
  69.3080000  37.9540000   6.6100000  67.0890000  38.6880000   7.3820000
  69.3040000  36.7950000   8.9900000  67.5300000  37.3090000   9.8280000
  70.1220000  37.4810000   6.7410000  69.1380000  38.6340000   5.3970000
  66.1040000  38.6930000   8.4010000  66.9180000  39.3680000   6.1690000
  66.3000000  38.0340000   9.6010000  67.7020000  36.6490000  11.0820000
  70.1220000  38.6290000   4.3780000  67.8940000  39.3630000   5.1650000
  65.2900000  39.1610000   8.2560000  66.1040000  39.8410000   6.0380000
  65.3160000  38.0500000  10.6390000  68.5050000  36.1680000  11.2470000
  66.7450000  36.6920000  12.0400000  69.9270000  39.2880000   3.1770000
  70.9360000  38.1610000   4.5230000  67.7230000  40.0400000   3.9410000
  65.5270000  37.4070000  11.8110000  64.5010000  38.5190000  10.5020000
  66.8830000  36.2470000  12.8680000  70.9110000  39.2710000   2.1400000
  68.6960000  40.0120000   2.9510000  66.9220000  40.5270000   3.7890000
  64.8600000  37.4300000  12.4870000  70.7000000  39.9150000   0.9680000
  71.7250000  38.8020000   2.2760000  68.5240000  40.6720000   1.6970000
  69.4820000  40.6290000   0.7390000  71.3660000  39.8920000   0.2920000
  67.7210000  41.1530000   1.5310000  69.3430000  41.0740000  -0.0890000
  70.4000000  55.7470000  75.4490000  70.2300000  56.4240000  74.2250000
  69.4240000  55.7520000  76.4530000  71.6440000  55.0180000  75.6810000
  69.4280000  56.9110000  74.0730000  71.2020000  56.3970000  73.2350000
  68.6110000  56.2250000  76.3220000  69.5950000  55.0720000  77.6660000
  72.6280000  55.0130000  74.6620000  71.8150000  54.3380000  76.8940000
  72.4330000  55.6720000  73.4620000  71.0300000  57.0560000  71.9810000
  68.6100000  55.0770000  78.6850000  70.8390000  54.3430000  77.8980000
  73.4430000  54.5450000  74.8070000  72.6280000  53.8650000  77.0250000
  73.4170000  55.6550000  72.4240000  70.2280000  57.5380000  71.8150000
  71.9880000  57.0130000  71.0230000  68.8060000  54.4180000  79.8860000
  67.7960000  55.5450000  78.5400000  71.0090000  53.6660000  79.1220000
  73.2060000  56.2990000  71.2520000  74.2320000  55.1870000  72.5610000
  71.8500000  57.4580000  70.1950000  67.8220000  54.4350000  80.9230000
  70.0370000  53.6930000  80.1120000  71.8110000  53.1790000  79.2740000
  73.8720000  56.2760000  70.5760000  68.0330000  53.7910000  82.0950000
  67.0070000  54.9030000  80.7870000  70.2090000  53.0340000  81.3660000
  69.2510000  53.0770000  82.3240000  67.3670000  53.8140000  82.7710000
  71.0110000  52.5520000  81.5320000  69.3890000  52.6320000  83.1520000
  71.3400000  57.6200000  91.9550000  71.5110000  56.9430000  93.1790000
  72.3160000  57.6150000  90.9510000  70.0960000  58.3490000  91.7230000
  72.3120000  56.4560000  93.3310000  70.5380000  56.9700000  94.1690000
  73.1300000  57.1420000  91.0820000  72.1450000  58.2950000  89.7380000
  69.1120000  58.3540000  92.7420000  69.9260000  59.0290000  90.5100000
  69.3070000  57.6950000  93.9420000  70.7100000  56.3100000  95.4230000
  73.1300000  58.2900000  88.7190000  70.9010000  59.0240000  89.5060000
  68.2970000  58.8220000  92.5970000  69.1120000  59.5020000  90.3790000
  68.3230000  57.7110000  94.9800000  71.5120000  55.8290000  95.5880000
  69.7520000  56.3530000  96.3810000  72.9340000  58.9490000  87.5180000
  73.9440000  57.8220000  88.8640000  70.7310000  59.7010000  88.2820000
  68.5340000  57.0680000  96.1520000  67.5080000  58.1800000  94.8430000
  69.8910000  55.9080000  97.2090000  73.9180000  58.9320000  86.4810000
  71.7030000  59.6730000  87.2920000  69.9300000  60.1880000  88.1300000
  67.8680000  57.0910000  96.8280000  73.7070000  59.5760000  85.3090000
  74.7330000  58.4630000  86.6170000  71.5320000  60.3330000  86.0380000
  72.4890000  60.2900000  85.0800000  74.3740000  59.5530000  84.6320000
  70.7290000  60.8140000  85.8720000  72.3510000  60.7350000  84.2520000
  69.8990000  52.4700000  61.3920000  69.7280000  53.1470000  60.1680000
  68.9230000  52.4750000  62.3960000  71.1430000  51.7410000  61.6240000
  68.9270000  53.6340000  60.0160000  70.7010000  53.1200000  59.1780000
  68.1090000  52.9480000  62.2650000  69.0940000  51.7950000  63.6090000
  72.1270000  51.7360000  60.6050000  71.3130000  51.0610000  62.8370000
  71.9320000  52.3950000  59.4050000  70.5290000  53.7800000  57.9250000
  68.1090000  51.8000000  64.6280000  70.3380000  51.0660000  63.8410000
  72.9420000  51.2690000  60.7500000  72.1270000  50.5890000  62.9680000
  72.9160000  52.3790000  58.3670000  69.7260000  54.2610000  57.7590000
  71.4870000  53.7370000  56.9660000  68.3050000  51.1410000  65.8290000
  67.2950000  52.2680000  64.4830000  70.5080000  50.3890000  65.0650000
  72.7050000  53.0220000  57.1950000  73.7300000  51.9100000  58.5040000
  71.3480000  54.1820000  56.1380000  67.3210000  51.1580000  66.8660000
  69.5360000  50.4170000  66.0550000  71.3090000  49.9020000  65.2170000
  73.3710000  52.9990000  56.5190000  67.5320000  50.5140000  68.0380000
  66.5060000  51.6270000  66.7300000  69.7070000  49.7570000  67.3090000
  68.7500000  49.8000000  68.2680000  66.8650000  50.5370000  68.7150000
  70.5100000  49.2760000  67.4750000  68.8880000  49.3550000  69.0960000
  72.8120000  88.7110000  19.2220000  72.6410000  89.3880000  17.9980000
  71.8360000  88.7160000  20.2260000  74.0560000  87.9820000  19.4540000
  71.8400000  89.8760000  17.8460000  73.6140000  89.3610000  17.0080000
  71.0220000  89.1890000  20.0950000  72.0060000  88.0360000  21.4390000
  75.0400000  87.9770000  18.4350000  74.2260000  87.3020000  20.6670000
  74.8440000  88.6370000  17.2340000  73.4420000  90.0210000  15.7540000
  71.0220000  88.0410000  22.4580000  73.2510000  87.3070000  21.6710000
  75.8540000  87.5100000  18.5800000  75.0400000  86.8300000  20.7980000
  75.8290000  88.6200000  16.1970000  72.6390000  90.5020000  15.5880000
  74.4000000  89.9780000  14.7950000  71.2180000  87.3820000  23.6580000
  70.2080000  88.5090000  22.3130000  73.4210000  86.6300000  22.8950000
  75.6180000  89.2630000  15.0250000  76.6430000  88.1510000  16.3330000
  74.2610000  90.4230000  13.9670000  70.2340000  87.3990000  24.6960000
  72.4480000  86.6580000  23.8850000  74.2220000  86.1430000  23.0470000
  76.2840000  89.2400000  14.3480000  70.4450000  86.7550000  25.8680000
  69.4190000  87.8680000  24.5590000  72.6200000  85.9980000  25.1380000
  71.6630000  86.0410000  26.0970000  69.7780000  86.7790000  26.5440000
  73.4230000  85.5170000  25.3040000  71.8010000  85.5960000  26.9250000
  69.1310000  50.3180000  19.2220000  68.9610000  50.9950000  17.9980000
  68.1550000  50.3230000  20.2260000  70.3750000  49.5890000  19.4540000
  68.1590000  51.4830000  17.8460000  69.9330000  50.9680000  17.0080000
  67.3420000  50.7960000  20.0950000  68.3260000  49.6430000  21.4390000
  71.3600000  49.5840000  18.4350000  70.5460000  48.9090000  20.6670000
  71.1640000  50.2440000  17.2340000  69.7610000  51.6280000  15.7540000
  67.3420000  49.6480000  22.4580000  69.5700000  48.9140000  21.6710000
  72.1740000  49.1170000  18.5800000  71.3590000  48.4370000  20.7980000
  72.1480000  50.2270000  16.1970000  68.9590000  52.1090000  15.5880000
  70.7190000  51.5850000  14.7950000  67.5370000  48.9890000  23.6580000
  66.5270000  50.1160000  22.3130000  69.7400000  48.2380000  22.8950000
  71.9370000  50.8700000  15.0250000  72.9630000  49.7580000  16.3330000
  70.5810000  52.0300000  13.9670000  66.5530000  49.0060000  24.6960000
  68.7680000  48.2650000  23.8850000  70.5420000  47.7500000  23.0470000
  72.6030000  50.8470000  14.3480000  66.7640000  48.3620000  25.8680000
  65.7380000  49.4750000  24.5590000  68.9400000  47.6050000  25.1380000
  67.9820000  47.6480000  26.0970000  66.0980000  48.3860000  26.5440000
  69.7420000  47.1240000  25.3040000  68.1200000  47.2030000  26.9250000
  70.0710000  52.1910000  35.7270000  70.2420000  51.5140000  36.9520000
  71.0470000  52.1860000  34.7240000  68.8270000  52.9200000  35.4960000
  71.0430000  51.0270000  37.1040000  69.2690000  51.5420000  37.9410000
  71.8610000  51.7130000  34.8550000  70.8760000  52.8660000  33.5110000
  67.8430000  52.9250000  36.5150000  68.6570000  53.6000000  34.2820000
  68.0380000  52.2660000  37.7150000  69.4410000  50.8820000  39.1950000
  71.8610000  52.8610000  32.4920000  69.6320000  53.5950000  33.2790000
  67.0280000  53.3930000  36.3700000  67.8430000  54.0730000  34.1520000
  67.0540000  52.2830000  38.7520000  70.2440000  50.4010000  39.3610000
  68.4830000  50.9250000  40.1540000  71.6650000  53.5200000  31.2910000
  72.6750000  52.3930000  32.6360000  69.4620000  54.2720000  32.0540000
  67.2650000  51.6390000  39.9250000  66.2390000  52.7520000  38.6160000
  68.6220000  50.4800000  40.9820000  72.6490000  53.5040000  30.2540000
  70.4340000  54.2450000  31.0650000  68.6610000  54.7590000  31.9030000
  66.5990000  51.6620000  40.6010000  72.4380000  54.1470000  29.0810000
  73.4640000  53.0350000  30.3900000  70.2630000  54.9050000  29.8110000
  71.2200000  54.8620000  28.8520000  73.1050000  54.1240000  28.4050000
  69.4600000  55.3860000  29.6450000  71.0820000  55.3070000  28.0240000
  70.5730000  55.4680000  49.7840000  70.7430000  54.7910000  51.0090000
  71.5480000  55.4630000  48.7810000  69.3280000  56.1970000  49.5520000
  71.5440000  54.3040000  51.1600000  69.7700000  54.8180000  51.9980000
  72.3620000  54.9900000  48.9110000  71.3780000  56.1430000  47.5670000
  68.3440000  56.2020000  50.5710000  69.1580000  56.8770000  48.3390000
  68.5400000  55.5430000  51.7720000  69.9420000  54.1590000  53.2520000
  72.3620000  56.1380000  46.5480000  70.1340000  56.8720000  47.3360000
  67.5300000  56.6700000  50.4270000  68.3440000  57.3500000  48.2080000
  67.5550000  55.5600000  52.8090000  70.7450000  53.6770000  53.4180000
  68.9850000  54.2020000  54.2110000  72.1660000  56.7970000  45.3480000
  73.1760000  55.6700000  46.6930000  69.9630000  57.5490000  46.1110000
  67.7670000  54.9160000  53.9820000  66.7410000  56.0280000  52.6730000
  69.1230000  53.7560000  55.0390000  73.1510000  56.7800000  44.3110000
  70.9360000  57.5220000  45.1220000  69.1620000  58.0360000  45.9590000
  67.1000000  54.9390000  54.6580000  72.9390000  57.4240000  43.1380000
  73.9650000  56.3110000  44.4470000  70.7640000  58.1810000  43.8680000
  71.7220000  58.1380000  42.9090000  73.6060000  57.4010000  42.4620000
  69.9610000  58.6630000  43.7020000  71.5830000  58.5830000  42.0810000
  69.0690000  45.6370000   7.6140000  69.2390000  44.9610000   8.8380000
  70.0440000  45.6320000   6.6100000  67.8250000  46.3670000   7.3820000
  70.0400000  44.4730000   8.9900000  68.2670000  44.9880000   9.8280000
  70.8580000  45.1600000   6.7410000  69.8740000  46.3120000   5.3970000
  66.8400000  46.3710000   8.4010000  67.6540000  47.0470000   6.1690000
  67.0360000  45.7120000   9.6010000  68.4380000  44.3280000  11.0820000
  70.8580000  46.3070000   4.3780000  68.6300000  47.0420000   5.1650000
  66.0260000  46.8390000   8.2560000  66.8400000  47.5190000   6.0380000
  66.0520000  45.7290000  10.6390000  69.2410000  43.8470000  11.2470000
  67.4810000  44.3710000  12.0400000  70.6630000  46.9670000   3.1770000
  71.6730000  45.8400000   4.5230000  68.4590000  47.7180000   3.9410000
  66.2630000  45.0860000  11.8110000  65.2370000  46.1980000  10.5020000
  67.6190000  43.9260000  12.8680000  71.6470000  46.9500000   2.1400000
  69.4320000  47.6910000   2.9510000  67.6580000  48.2060000   3.7890000
  65.5960000  45.1090000  12.4870000  71.4360000  47.5930000   0.9680000
  72.4620000  46.4810000   2.2760000  69.2600000  48.3510000   1.6970000
  70.2180000  48.3080000   0.7390000  72.1020000  47.5700000   0.2920000
  68.4580000  48.8320000   1.5310000  70.0790000  48.7530000  -0.0890000
  71.0740000  58.7450000  63.8410000  71.2440000  58.0680000  65.0650000
  72.0500000  58.7400000  62.8370000  69.8300000  59.4740000  63.6090000
  72.0450000  57.5800000  65.2170000  70.2720000  58.0950000  66.0550000
  72.8630000  58.2670000  62.9680000  71.8790000  59.4200000  61.6240000
  68.8450000  59.4790000  64.6280000  69.6590000  60.1540000  62.3960000
  69.0410000  58.8200000  65.8290000  70.4430000  57.4350000  67.3090000
  72.8630000  59.4150000  60.6050000  70.6350000  60.1490000  61.3920000
  68.0310000  59.9460000  64.4830000  68.8450000  60.6260000  62.2650000
  68.0570000  58.8360000  66.8660000  71.2460000  56.9540000  67.4750000
  69.4860000  57.4780000  68.2680000  72.6680000  60.0740000  59.4050000
  73.6780000  58.9470000  60.7500000  70.4640000  60.8260000  60.1680000
  68.2680000  58.1930000  68.0380000  67.2420000  59.3050000  66.7300000
  69.6240000  57.0330000  69.0960000  73.6520000  60.0570000  58.3670000
  71.4370000  60.7980000  59.1780000  69.6630000  61.3130000  60.0160000
  67.6010000  58.2160000  68.7150000  73.4410000  60.7010000  57.1950000
  74.4670000  59.5880000  58.5040000  71.2650000  61.4580000  57.9250000
  72.2230000  61.4150000  56.9660000  74.1070000  60.6770000  56.5190000
  70.4630000  61.9390000  57.7590000  72.0840000  61.8600000  56.1380000
  71.5750000  62.0220000  77.8980000  71.7450000  61.3450000  79.1220000
  72.5510000  62.0160000  76.8940000  70.3310000  62.7510000  77.6660000
  72.5470000  60.8570000  79.2740000  70.7730000  61.3720000  80.1120000
  73.3640000  61.5440000  77.0250000  72.3800000  62.6970000  75.6810000
  69.3470000  62.7560000  78.6850000  70.1600000  63.4310000  76.4530000
  69.5420000  62.0960000  79.8860000  70.9450000  60.7120000  81.3660000
  73.3650000  62.6920000  74.6620000  71.1360000  63.4260000  75.4490000
  68.5320000  63.2230000  78.5400000  69.3470000  63.9030000  76.3220000
  68.5580000  62.1130000  80.9230000  71.7470000  60.2310000  81.5320000
  69.9870000  60.7550000  82.3240000  73.1690000  63.3510000  73.4620000
  74.1790000  62.2240000  74.8070000  70.9660000  64.1020000  74.2250000
  68.7690000  61.4700000  82.0950000  67.7430000  62.5820000  80.7870000
  70.1250000  60.3100000  83.1520000  74.1530000  63.3340000  72.4240000
  71.9380000  64.0750000  73.2350000  70.1640000  64.5900000  74.0730000
  68.1030000  61.4930000  82.7710000  73.9420000  63.9780000  71.2520000
  74.9680000  62.8650000  72.5610000  71.7660000  64.7350000  71.9810000
  72.7240000  64.6920000  71.0230000  74.6080000  63.9540000  70.5760000
  70.9640000  65.2160000  71.8150000  72.5860000  65.1370000  70.1950000
  71.6370000  66.7030000  89.5060000  71.4670000  67.3790000  88.2820000
  70.6620000  66.7080000  90.5100000  72.8810000  65.9730000  89.7380000
  70.6660000  67.8670000  88.1300000  72.4400000  67.3520000  87.2920000
  69.8480000  67.1800000  90.3790000  70.8320000  66.0280000  91.7230000
  73.8660000  65.9680000  88.7190000  73.0520000  65.2930000  90.9510000
  73.6700000  66.6280000  87.5180000  72.2680000  68.0120000  86.0380000
  69.8480000  66.0320000  92.7420000  72.0760000  65.2980000  91.9550000
  74.6800000  65.5010000  88.8640000  73.8660000  64.8210000  91.0820000
  74.6540000  66.6110000  86.4810000  71.4650000  68.4930000  85.8720000
  73.2250000  67.9690000  85.0800000  70.0430000  65.3730000  93.9420000
  69.0340000  66.5000000  92.5970000  72.2470000  64.6220000  93.1790000
  74.4430000  67.2540000  85.3090000  75.4690000  66.1420000  86.6170000
  73.0870000  68.4140000  84.2520000  69.0590000  65.3900000  94.9800000
  71.2740000  64.6490000  94.1690000  73.0480000  64.1340000  93.3310000
  75.1100000  67.2310000  84.6320000  69.2700000  64.7470000  96.1520000
  68.2450000  65.8590000  94.8430000  71.4460000  63.9890000  95.4230000
  70.4880000  64.0320000  96.3810000  68.6040000  64.7700000  96.8280000
  72.2490000  63.5080000  95.5880000  70.6270000  63.5870000  97.2090000
  70.3060000  56.5930000  21.6710000  70.4770000  55.9160000  22.8950000
  71.2820000  56.5880000  20.6670000  69.0620000  57.3220000  21.4390000
  71.2780000  55.4290000  23.0470000  69.5040000  55.9430000  23.8850000
  72.0960000  56.1150000  20.7980000  71.1110000  57.2680000  19.4540000
  68.0780000  57.3270000  22.4580000  68.8910000  58.0020000  20.2260000
  68.2730000  56.6680000  23.6580000  69.6760000  55.2830000  25.1380000
  72.0960000  57.2630000  18.4350000  69.8670000  57.9970000  19.2220000
  67.2630000  57.7950000  22.3130000  68.0780000  58.4750000  20.0950000
  67.2890000  56.6840000  24.6960000  70.4780000  54.8020000  25.3040000
  68.7180000  55.3260000  26.0970000  71.9000000  57.9220000  17.2340000
  72.9100000  56.7950000  18.5800000  69.6970000  58.6740000  17.9980000
  67.5000000  56.0410000  25.8680000  66.4740000  57.1530000  24.5590000
  68.8570000  54.8810000  26.9250000  72.8840000  57.9050000  16.1970000
  70.6690000  58.6460000  17.0080000  68.8960000  59.1610000  17.8460000
  66.8340000  56.0640000  26.5440000  72.6730000  58.5490000  15.0250000
  73.6990000  57.4360000  16.3330000  70.4980000  59.3060000  15.7540000
  71.4550000  59.2630000  14.7950000  73.3400000  58.5260000  14.3480000
  69.6950000  59.7870000  15.5880000  71.3170000  59.7080000  13.9670000
  70.8070000  59.8700000  35.7270000  70.9780000  59.1930000  36.9520000
  71.7830000  59.8650000  34.7240000  69.5630000  60.5990000  35.4960000
  71.7790000  58.7050000  37.1040000  70.0050000  59.2200000  37.9410000
  72.5970000  59.3920000  34.8550000  71.6130000  60.5450000  33.5110000
  68.5790000  60.6040000  36.5150000  69.3930000  61.2790000  34.2820000
  68.7750000  59.9440000  37.7150000  70.1770000  58.5600000  39.1950000
  72.5970000  60.5400000  32.4920000  70.3680000  61.2740000  33.2790000
  67.7650000  61.0710000  36.3700000  68.5790000  61.7510000  34.1520000
  67.7900000  59.9610000  38.7520000  70.9800000  58.0790000  39.3610000
  69.2190000  58.6030000  40.1540000  72.4010000  61.1990000  31.2910000
  73.4110000  60.0720000  32.6360000  70.1980000  61.9500000  32.0540000
  68.0020000  59.3180000  39.9250000  66.9760000  60.4300000  38.6160000
  69.3580000  58.1580000  40.9820000  73.3860000  61.1820000  30.2540000
  71.1710000  61.9230000  31.0650000  69.3970000  62.4380000  31.9030000
  67.3350000  59.3410000  40.6010000  73.1740000  61.8260000  29.0810000
  74.2000000  60.7130000  30.3900000  70.9990000  62.5830000  29.8110000
  71.9560000  62.5400000  28.8520000  73.8410000  61.8020000  28.4050000
  70.1960000  63.0640000  29.6450000  71.8180000  62.9850000  28.0240000
  71.3090000  63.1460000  49.7840000  71.4790000  62.4700000  51.0090000
  72.2840000  63.1410000  48.7810000  70.0650000  63.8760000  49.5520000
  72.2800000  61.9820000  51.1600000  70.5060000  62.4970000  51.9980000
  73.0980000  62.6690000  48.9110000  72.1140000  63.8210000  47.5670000
  69.0800000  63.8810000  50.5710000  69.8940000  64.5560000  48.3390000
  69.2760000  63.2210000  51.7720000  70.6780000  61.8370000  53.2520000
  73.0980000  63.8170000  46.5480000  70.8700000  64.5510000  47.3360000
  68.2660000  64.3480000  50.4270000  69.0800000  65.0280000  48.2080000
  68.2920000  63.2380000  52.8090000  71.4810000  61.3560000  53.4180000
  69.7210000  61.8800000  54.2110000  72.9030000  64.4760000  45.3480000
  73.9120000  63.3490000  46.6930000  70.6990000  65.2270000  46.1110000
  68.5030000  62.5950000  53.9820000  67.4770000  63.7070000  52.6730000
  69.8590000  61.4350000  55.0390000  73.8870000  64.4590000  44.3110000
  71.6720000  65.2000000  45.1220000  69.8980000  65.7150000  45.9590000
  67.8360000  62.6180000  54.6580000  73.6760000  65.1020000  43.1380000
  74.7010000  63.9900000  44.4470000  71.5000000  65.8600000  43.8680000
  72.4580000  65.8170000  42.9090000  74.3420000  65.0790000  42.4620000
  70.6970000  66.3410000  43.7020000  72.3190000  66.2620000  42.0810000
  69.8050000  53.3160000   7.6140000  69.9750000  52.6390000   8.8380000
  70.7810000  53.3110000   6.6100000  68.5610000  54.0450000   7.3820000
  70.7760000  52.1520000   8.9900000  69.0030000  52.6660000   9.8280000
  71.5940000  52.8380000   6.7410000  70.6100000  53.9910000   5.3970000
  67.5760000  54.0500000   8.4010000  68.3900000  54.7250000   6.1690000
  67.7720000  53.3910000   9.6010000  69.1750000  52.0070000  11.0820000
  71.5940000  53.9860000   4.3780000  69.3660000  54.7200000   5.1650000
  66.7620000  54.5180000   8.2560000  67.5770000  55.1980000   6.0380000
  66.7880000  53.4080000  10.6390000  69.9770000  51.5250000  11.2470000
  68.2170000  52.0500000  12.0400000  71.3990000  54.6450000   3.1770000
  72.4090000  53.5180000   4.5230000  69.1950000  55.3970000   3.9410000
  66.9990000  52.7640000  11.8110000  65.9730000  53.8770000  10.5020000
  68.3550000  51.6050000  12.8680000  72.3830000  54.6280000   2.1400000
  70.1680000  55.3700000   2.9510000  68.3940000  55.8840000   3.7890000
  66.3320000  52.7870000  12.4870000  72.1720000  55.2720000   0.9680000
  73.1980000  54.1600000   2.2760000  69.9960000  56.0290000   1.6970000
  70.9540000  55.9860000   0.7390000  72.8380000  55.2490000   0.2920000
  69.1940000  56.5110000   1.5310000  70.8160000  56.4320000  -0.0890000
  71.3710000  67.8270000  61.3920000  71.2010000  68.5040000  60.1680000
  70.3950000  67.8330000  62.3960000  72.6150000  67.0980000  61.6240000
  70.3990000  68.9920000  60.0160000  72.1730000  68.4770000  59.1780000
  69.5820000  68.3050000  62.2650000  70.5660000  67.1520000  63.6090000
  73.5990000  67.0930000  60.6050000  72.7860000  66.4180000  62.8370000
  73.4040000  67.7530000  59.4050000  72.0010000  69.1370000  57.9250000
  69.5810000  67.1570000  64.6280000  71.8100000  66.4230000  63.8410000
  74.4140000  66.6260000  60.7500000  73.5990000  65.9460000  62.9680000
  74.3880000  67.7360000  58.3670000  71.1990000  69.6180000  57.7590000
  72.9590000  69.0940000  56.9660000  69.7770000  66.4980000  65.8290000
  68.7670000  67.6250000  64.4830000  71.9800000  65.7470000  65.0650000
  74.1770000  68.3790000  57.1950000  75.2030000  67.2670000  58.5040000
  72.8210000  69.5390000  56.1380000  68.7930000  66.5150000  66.8660000
  71.0080000  65.7740000  66.0550000  72.7820000  65.2590000  65.2170000
  74.8430000  68.3560000  56.5190000  69.0040000  65.8710000  68.0380000
  67.9780000  66.9840000  66.7300000  71.1800000  65.1140000  67.3090000
  70.2220000  65.1570000  68.2680000  68.3380000  65.8950000  68.7150000
  71.9820000  64.6330000  67.4750000  70.3600000  64.7120000  69.0960000
  71.8720000  71.1040000  75.4490000  71.7020000  71.7810000  74.2250000
  70.8960000  71.1090000  76.4530000  73.1160000  70.3750000  75.6810000
  70.9010000  72.2690000  74.0730000  72.6740000  71.7540000  73.2350000
  70.0830000  71.5820000  76.3220000  71.0670000  70.4290000  77.6660000
  74.1010000  70.3700000  74.6620000  73.2870000  69.6950000  76.8940000
  73.9050000  71.0290000  73.4620000  72.5030000  72.4140000  71.9810000
  70.0830000  70.4340000  78.6850000  72.3110000  69.7000000  77.8980000
  74.9150000  69.9030000  74.8070000  74.1010000  69.2230000  77.0250000
  74.8890000  71.0130000  72.4240000  71.7000000  72.8950000  71.8150000
  73.4600000  72.3710000  71.0230000  70.2780000  69.7750000  79.8860000
  69.2680000  70.9020000  78.5400000  72.4820000  69.0230000  79.1220000
  74.6780000  71.6560000  71.2520000  75.7040000  70.5440000  72.5610000
  73.3220000  72.8160000  70.1950000  69.2940000  69.7920000  80.9230000
  71.5090000  69.0510000  80.1120000  73.2830000  68.5360000  79.2740000
  75.3450000  71.6330000  70.5760000  69.5050000  69.1480000  82.0950000
  68.4790000  70.2610000  80.7870000  71.6810000  68.3910000  81.3660000
  70.7230000  68.4340000  82.3240000  68.8390000  69.1720000  82.7710000
  72.4830000  67.9100000  81.5320000  70.8620000  67.9890000  83.1520000
  72.8120000  72.9770000  91.9550000  72.9830000  72.3000000  93.1790000
  73.7880000  72.9720000  90.9510000  71.5680000  73.7060000  91.7230000
  73.7840000  71.8130000  93.3310000  72.0100000  72.3270000  94.1690000
  74.6020000  72.4990000  91.0820000  73.6180000  73.6520000  89.7380000
  70.5840000  73.7110000  92.7420000  71.3980000  74.3860000  90.5100000
  70.7800000  73.0520000  93.9420000  72.1820000  71.6680000  95.4230000
  74.6020000  73.6470000  88.7190000  72.3730000  74.3810000  89.5060000
  69.7700000  74.1790000  92.5970000  70.5840000  74.8590000  90.3790000
  69.7950000  73.0690000  94.9800000  72.9850000  71.1860000  95.5880000
  71.2240000  71.7110000  96.3810000  74.4060000  74.3060000  87.5180000
  75.4160000  73.1790000  88.8640000  72.2030000  75.0580000  88.2820000
  70.0070000  72.4250000  96.1520000  68.9810000  73.5380000  94.8430000
  71.3630000  71.2660000  97.2090000  75.3910000  74.2890000  86.4810000
  73.1760000  75.0310000  87.2920000  71.4020000  75.5450000  88.1300000
  69.3400000  72.4480000  96.8280000  75.1790000  74.9330000  85.3090000
  76.2050000  73.8210000  86.6170000  73.0040000  75.6900000  86.0380000
  73.9610000  75.6470000  85.0800000  75.8460000  74.9100000  84.6320000
  72.2010000  76.1720000  85.8720000  73.8230000  76.0930000  84.2520000
  70.5410000  60.9950000   7.6140000  70.7110000  60.3180000   8.8380000
  71.5170000  60.9890000   6.6100000  69.2970000  61.7240000   7.3820000
  71.5130000  59.8300000   8.9900000  69.7390000  60.3450000   9.8280000
  72.3300000  60.5170000   6.7410000  71.3460000  61.6700000   5.3970000
  68.3130000  61.7290000   8.4010000  69.1260000  62.4040000   6.1690000
  68.5080000  61.0690000   9.6010000  69.9110000  59.6850000  11.0820000
  72.3310000  61.6650000   4.3780000  70.1020000  62.3990000   5.1650000
  67.4980000  62.1960000   8.2560000  68.3130000  62.8760000   6.0380000
  67.5240000  61.0860000  10.6390000  70.7130000  59.2040000  11.2470000
  68.9530000  59.7280000  12.0400000  72.1350000  62.3240000   3.1770000
  73.1450000  61.1970000   4.5230000  69.9320000  63.0750000   3.9410000
  67.7350000  60.4430000  11.8110000  66.7090000  61.5550000  10.5020000
  69.0910000  59.2830000  12.8680000  73.1190000  62.3070000   2.1400000
  70.9040000  63.0480000   2.9510000  69.1300000  63.5630000   3.7890000
  67.0690000  60.4660000  12.4870000  72.9080000  62.9510000   0.9680000
  73.9340000  61.8380000   2.2760000  70.7320000  63.7080000   1.6970000
  71.6900000  63.6650000   0.7390000  73.5740000  62.9270000   0.2920000
  69.9300000  64.1890000   1.5310000  71.5520000  64.1100000  -0.0890000
  71.1050000  68.9520000  33.2790000  70.9340000  69.6290000  32.0540000
  70.1290000  68.9580000  34.2820000  72.3490000  68.2230000  33.5110000
  70.1330000  70.1170000  31.9030000  71.9070000  69.6020000  31.0650000
  69.3150000  69.4300000  34.1520000  70.2990000  68.2770000  35.4960000
  73.3330000  68.2180000  32.4920000  72.5190000  67.5430000  34.7240000
  73.1370000  68.8780000  31.2910000  71.7350000  70.2620000  29.8110000
  69.3150000  68.2820000  36.5150000  71.5430000  67.5480000  35.7270000
  74.1470000  67.7510000  32.6360000  73.3330000  67.0710000  34.8550000
  74.1220000  68.8610000  30.2540000  70.9320000  70.7430000  29.6450000
  72.6930000  70.2190000  28.8520000  69.5110000  67.6230000  37.7150000
  68.5010000  68.7500000  36.3700000  71.7140000  66.8720000  36.9520000
  73.9100000  69.5040000  29.0810000  74.9360000  68.3920000  30.3900000
  72.5540000  70.6640000  28.0240000  68.5260000  67.6400000  38.7520000
  70.7410000  66.8990000  37.9410000  72.5150000  66.3840000  37.1040000
  74.5770000  69.4810000  28.4050000  68.7380000  66.9960000  39.9250000
  67.7120000  68.1090000  38.6160000  70.9130000  66.2390000  39.1950000
  69.9550000  66.2820000  40.1540000  68.0710000  67.0200000  40.6010000
  71.7160000  65.7580000  39.3610000  70.0940000  65.8370000  40.9820000
  72.0450000  70.8250000  49.7840000  72.2150000  70.1480000  51.0090000
  73.0210000  70.8200000  48.7810000  70.8010000  71.5540000  49.5520000
  73.0160000  69.6610000  51.1600000  71.2430000  70.1760000  51.9980000
  73.8340000  70.3470000  48.9110000  72.8500000  71.5000000  47.5670000
  69.8160000  71.5590000  50.5710000  70.6300000  72.2340000  48.3390000
  70.0120000  70.9000000  51.7720000  71.4140000  69.5160000  53.2520000
  73.8340000  71.4950000  46.5480000  71.6060000  72.2290000  47.3360000
  69.0020000  72.0270000  50.4270000  69.8160000  72.7070000  48.2080000
  69.0280000  70.9170000  52.8090000  72.2170000  69.0350000  53.4180000
  70.4570000  69.5590000  54.2110000  73.6390000  72.1540000  45.3480000
  74.6490000  71.0270000  46.6930000  71.4350000  72.9060000  46.1110000
  69.2390000  70.2730000  53.9820000  68.2130000  71.3860000  52.6730000
  70.5950000  69.1140000  55.0390000  74.6230000  72.1380000  44.3110000
  72.4080000  72.8790000  45.1220000  70.6340000  73.3930000  45.9590000
  68.5720000  70.2960000  54.6580000  74.4120000  72.7810000  43.1380000
  75.4380000  71.6690000  44.4470000  72.2360000  73.5390000  43.8680000
  73.1940000  73.4960000  42.9090000  75.0780000  72.7580000  42.4620000
  71.4340000  74.0200000  43.7020000  73.0550000  73.9410000  42.0810000
  72.1070000  75.5060000  61.3920000  71.9370000  76.1830000  60.1680000
  71.1310000  75.5110000  62.3960000  73.3510000  74.7770000  61.6240000
  71.1350000  76.6700000  60.0160000  72.9090000  76.1560000  59.1780000
  70.3180000  75.9840000  62.2650000  71.3020000  74.8310000  63.6090000
  74.3360000  74.7720000  60.6050000  73.5220000  74.0970000  62.8370000
  74.1400000  75.4310000  59.4050000  72.7370000  76.8150000  57.9250000
  70.3180000  74.8360000  64.6280000  72.5460000  74.1020000  63.8410000
  75.1500000  74.3040000  60.7500000  74.3350000  73.6240000  62.9680000
  75.1240000  75.4140000  58.3670000  71.9350000  77.2970000  57.7590000
  73.6950000  76.7720000  56.9660000  70.5130000  74.1770000  65.8290000
  69.5030000  75.3040000  64.4830000  72.7160000  73.4250000  65.0650000
  74.9130000  76.0580000  57.1950000  75.9390000  74.9460000  58.5040000
  73.5570000  77.2170000  56.1380000  69.5290000  74.1940000  66.8660000
  71.7440000  73.4520000  66.0550000  73.5180000  72.9380000  65.2170000
  75.5790000  76.0350000  56.5190000  69.7400000  73.5500000  68.0380000
  68.7140000  74.6620000  66.7300000  71.9160000  72.7930000  67.3090000
  70.9580000  72.8360000  68.2680000  69.0740000  73.5730000  68.7150000
  72.7180000  72.3110000  67.4750000  71.0960000  72.3910000  69.0960000
  73.1100000  82.0600000  89.5060000  72.9390000  82.7360000  88.2820000
  72.1340000  82.0650000  90.5100000  74.3540000  81.3310000  89.7380000
  72.1380000  83.2240000  88.1300000  73.9120000  82.7090000  87.2920000
  71.3200000  82.5370000  90.3790000  72.3040000  81.3850000  91.7230000
  75.3380000  81.3260000  88.7190000  74.5240000  80.6500000  90.9510000
  75.1420000  81.9850000  87.5180000  73.7400000  83.3690000  86.0380000
  71.3200000  81.3900000  92.7420000  73.5490000  80.6560000  91.9550000
  76.1520000  80.8580000  88.8640000  75.3380000  80.1780000  91.0820000
  76.1270000  81.9680000  86.4810000  72.9370000  83.8500000  85.8720000
  74.6980000  83.3260000  85.0800000  71.5160000  80.7300000  93.9420000
  70.5060000  81.8570000  92.5970000  73.7190000  79.9790000  93.1790000
  75.9150000  82.6120000  85.3090000  76.9410000  81.4990000  86.6170000
  74.5590000  83.7710000  84.2520000  70.5310000  80.7470000  94.9800000
  72.7460000  80.0060000  94.1690000  74.5200000  79.4910000  93.3310000
  76.5820000  82.5880000  84.6320000  70.7430000  80.1040000  96.1520000
  69.7170000  81.2160000  94.8430000  72.9180000  79.3460000  95.4230000
  71.9610000  79.3890000  96.3810000  70.0760000  80.1270000  96.8280000
  73.7210000  78.8650000  95.5880000  72.0990000  78.9440000  97.2090000
  70.6030000  65.6760000  19.2220000  70.4330000  66.3520000  17.9980000
  69.6280000  65.6810000  20.2260000  71.8470000  64.9460000  19.4540000
  69.6320000  66.8400000  17.8460000  71.4050000  66.3250000  17.0080000
  68.8140000  66.1530000  20.0950000  69.7980000  65.0010000  21.4390000
  72.8320000  64.9410000  18.4350000  72.0180000  64.2660000  20.6670000
  72.6360000  65.6010000  17.2340000  71.2340000  66.9850000  15.7540000
  68.8140000  65.0050000  22.4580000  71.0420000  64.2710000  21.6710000
  73.6460000  64.4740000  18.5800000  72.8320000  63.7940000  20.7980000
  73.6200000  65.5840000  16.1970000  70.4310000  67.4660000  15.5880000
  72.1910000  66.9420000  14.7950000  69.0090000  64.3460000  23.6580000
  67.9990000  65.4730000  22.3130000  71.2130000  63.5950000  22.8950000
  73.4090000  66.2270000  15.0250000  74.4350000  65.1150000  16.3330000
  72.0530000  67.3870000  13.9670000  68.0250000  64.3630000  24.6960000
  70.2400000  63.6220000  23.8850000  72.0140000  63.1070000  23.0470000
  74.0760000  66.2040000  14.3480000  68.2360000  63.7200000  25.8680000
  67.2100000  64.8320000  24.5590000  70.4120000  62.9620000  25.1380000
  69.4540000  63.0050000  26.0970000  67.5700000  63.7430000  26.5440000
  71.2150000  62.4810000  25.3040000  69.5930000  62.5600000  26.9250000
  72.6080000  78.7830000  75.4490000  72.4380000  79.4600000  74.2250000
  71.6330000  78.7880000  76.4530000  73.8520000  78.0540000  75.6810000
  71.6370000  79.9470000  74.0730000  73.4110000  79.4320000  73.2350000
  70.8190000  79.2600000  76.3220000  71.8030000  78.1080000  77.6660000
  74.8370000  78.0490000  74.6620000  74.0230000  77.3740000  76.8940000
  74.6410000  78.7080000  73.4620000  73.2390000  80.0920000  71.9810000
  70.8190000  78.1130000  78.6850000  73.0470000  77.3790000  77.8980000
  75.6510000  77.5810000  74.8070000  74.8370000  76.9010000  77.0250000
  75.6250000  78.6910000  72.4240000  72.4360000  80.5730000  71.8150000
  74.1960000  80.0490000  71.0230000  71.0140000  77.4540000  79.8860000
  70.0050000  78.5800000  78.5400000  73.2180000  76.7020000  79.1220000
  75.4140000  79.3350000  71.2520000  76.4400000  78.2220000  72.5610000
  74.0580000  80.4940000  70.1950000  70.0300000  77.4700000  80.9230000
  72.2450000  76.7290000  80.1120000  74.0190000  76.2150000  79.2740000
  76.0810000  79.3120000  70.5760000  70.2410000  76.8270000  82.0950000
  69.2160000  77.9390000  80.7870000  72.4170000  76.0690000  81.3660000
  71.4590000  76.1120000  82.3240000  69.5750000  76.8500000  82.7710000
  73.2200000  75.5880000  81.5320000  71.5980000  75.6670000  83.1520000
  71.7780000  71.9500000  21.6710000  71.9490000  71.2730000  22.8950000
  72.7540000  71.9450000  20.6670000  70.5340000  72.6790000  21.4390000
  72.7500000  70.7860000  23.0470000  70.9760000  71.3010000  23.8850000
  73.5680000  71.4720000  20.7980000  72.5840000  72.6250000  19.4540000
  69.5500000  72.6840000  22.4580000  70.3640000  73.3590000  20.2260000
  69.7460000  72.0250000  23.6580000  71.1480000  70.6410000  25.1380000
  73.5680000  72.6200000  18.4350000  71.3390000  73.3540000  19.2220000
  68.7360000  73.1520000  22.3130000  69.5500000  73.8320000  20.0950000
  68.7610000  72.0420000  24.6960000  71.9510000  70.1590000  25.3040000
  70.1900000  70.6840000  26.0970000  73.3720000  73.2790000  17.2340000
  74.3820000  72.1520000  18.5800000  71.1690000  74.0310000  17.9980000
  68.9720000  71.3980000  25.8680000  67.9470000  72.5110000  24.5590000
  70.3290000  70.2390000  26.9250000  74.3560000  73.2620000  16.1970000
  72.1420000  74.0040000  17.0080000  70.3680000  74.5180000  17.8460000
  68.3060000  71.4210000  26.5440000  74.1450000  73.9060000  15.0250000
  75.1710000  72.7940000  16.3330000  71.9700000  74.6630000  15.7540000
  72.9270000  74.6200000  14.7950000  74.8120000  73.8830000  14.3480000
  71.1670000  75.1450000  15.5880000  72.7890000  75.0660000  13.9670000
  71.8410000  76.6310000  33.2790000  71.6700000  77.3080000  32.0540000
  70.8650000  76.6360000  34.2820000  73.0850000  75.9020000  33.5110000
  70.8690000  77.7950000  31.9030000  72.6430000  77.2800000  31.0650000
  70.0510000  77.1090000  34.1520000  71.0360000  75.9560000  35.4960000
  74.0690000  75.8970000  32.4920000  73.2550000  75.2220000  34.7240000
  73.8740000  76.5560000  31.2910000  72.4710000  77.9400000  29.8110000
  70.0510000  75.9610000  36.5150000  72.2800000  75.2270000  35.7270000
  74.8830000  75.4290000  32.6360000  74.0690000  74.7490000  34.8550000
  74.8580000  76.5390000  30.2540000  71.6680000  78.4210000  29.6450000
  73.4290000  77.8970000  28.8520000  70.2470000  75.3020000  37.7150000
  69.2370000  76.4290000  36.3700000  72.4500000  74.5500000  36.9520000
  74.6470000  77.1830000  29.0810000  75.6720000  76.0700000  30.3900000
  73.2900000  78.3420000  28.0240000  69.2630000  75.3190000  38.7520000
  71.4770000  74.5770000  37.9410000  73.2510000  74.0630000  37.1040000
  75.3130000  77.1600000  28.4050000  69.4740000  74.6750000  39.9250000
  68.4480000  75.7870000  38.6160000  71.6490000  73.9170000  39.1950000
  70.6920000  73.9610000  40.1540000  68.8070000  74.6980000  40.6010000
  72.4520000  73.4360000  39.3610000  70.8300000  73.5150000  40.9820000
  72.3420000  79.9080000  47.3360000  72.1720000  80.5850000  46.1110000
  71.3660000  79.9130000  48.3390000  73.5860000  79.1790000  47.5670000
  71.3700000  81.0720000  45.9590000  73.1440000  80.5570000  45.1220000
  70.5530000  80.3850000  48.2080000  71.5370000  79.2330000  49.5520000
  74.5700000  79.1740000  46.5480000  73.7570000  78.4990000  48.7810000
  74.3750000  79.8330000  45.3480000  72.9720000  81.2170000  43.8680000
  70.5520000  79.2380000  50.5710000  72.7810000  78.5040000  49.7840000
  75.3850000  78.7060000  46.6930000  74.5700000  78.0260000  48.9110000
  75.3590000  79.8160000  44.3110000  72.1700000  81.6980000  43.7020000
  73.9300000  81.1740000  42.9090000  70.7480000  78.5780000  51.7720000
  69.7380000  79.7050000  50.4270000  72.9510000  77.8270000  51.0090000
  75.1480000  80.4600000  43.1380000  76.1740000  79.3470000  44.4470000
  73.7920000  81.6190000  42.0810000  69.7640000  78.5950000  52.8090000
  71.9790000  77.8540000  51.9980000  73.7530000  77.3390000  51.1600000
  75.8140000  80.4360000  42.4620000  69.9750000  77.9520000  53.9820000
  68.9490000  79.0640000  52.6730000  72.1510000  77.1940000  53.2520000
  71.1930000  77.2370000  54.2110000  69.3090000  77.9750000  54.6580000
  72.9530000  76.7130000  53.4180000  71.3310000  76.7920000  55.0390000
  70.8380000  70.0770000   5.1650000  70.6680000  70.7540000   3.9410000
  69.8620000  70.0820000   6.1690000  72.0820000  69.3480000   5.3970000
  69.8670000  71.2420000   3.7890000  71.6400000  70.7270000   2.9510000
  69.0490000  70.5550000   6.0380000  70.0330000  69.4020000   7.3820000
  73.0670000  69.3430000   4.3780000  72.2530000  68.6680000   6.6100000
  72.8710000  70.0020000   3.1770000  71.4690000  71.3870000   1.6970000
  69.0490000  69.4070000   8.4010000  71.2770000  68.6730000   7.6140000
  73.8810000  68.8760000   4.5230000  73.0670000  68.1960000   6.7410000
  73.8550000  69.9860000   2.1400000  70.6660000  71.8680000   1.5310000
  72.4260000  71.3440000   0.7390000  69.2440000  68.7480000   9.6010000
  68.2340000  69.8750000   8.2560000  71.4480000  67.9960000   8.8380000
  73.6440000  70.6290000   0.9680000  74.6700000  69.5170000   2.2760000
  72.2880000  71.7890000  -0.0890000  68.2600000  68.7650000  10.6390000
  70.4750000  68.0240000   9.8280000  72.2490000  67.5090000   8.9900000
  74.3110000  70.6060000   0.2920000  68.4710000  68.1210000  11.8110000
  67.4450000  69.2340000  10.5020000  70.6470000  67.3640000  11.0820000
  69.6890000  67.4070000  12.0400000  67.8050000  68.1450000  12.4870000
  71.4490000  66.8830000  11.2470000  69.8280000  66.9620000  12.8680000
  73.2820000  81.7810000  63.8410000  73.4530000  81.1040000  65.0650000
  74.2580000  81.7750000  62.8370000  72.0380000  82.5100000  63.6090000
  74.2540000  80.6160000  65.2170000  72.4800000  81.1310000  66.0550000
  75.0720000  81.3030000  62.9680000  74.0870000  82.4550000  61.6240000
  71.0540000  82.5150000  64.6280000  71.8670000  83.1900000  62.3960000
  71.2490000  81.8550000  65.8290000  72.6520000  80.4710000  67.3090000
  75.0720000  82.4510000  60.6050000  72.8430000  83.1850000  61.3920000
  70.2390000  82.9820000  64.4830000  71.0540000  83.6620000  62.2650000
  70.2650000  81.8720000  66.8660000  73.4540000  79.9900000  67.4750000
  71.6940000  80.5140000  68.2680000  74.8760000  83.1100000  59.4050000
  75.8860000  81.9830000  60.7500000  72.6730000  83.8610000  60.1680000
  70.4760000  81.2290000  68.0380000  69.4500000  82.3410000  66.7300000
  71.8330000  80.0690000  69.0960000  75.8600000  83.0930000  58.3670000
  73.6450000  83.8340000  59.1780000  71.8720000  84.3490000  60.0160000
  69.8100000  81.2520000  68.7150000  75.6490000  83.7370000  57.1950000
  76.6750000  82.6240000  58.5040000  73.4740000  84.4940000  57.9250000
  74.4310000  84.4510000  56.9660000  76.3160000  83.7130000  56.5190000
  72.6710000  84.9750000  57.7590000  74.2930000  84.8960000  56.1380000
  73.3440000  86.4610000  75.4490000  73.1740000  87.1380000  74.2250000
  72.3690000  86.4670000  76.4530000  74.5890000  85.7320000  75.6810000
  72.3730000  87.6260000  74.0730000  74.1470000  87.1110000  73.2350000
  71.5550000  86.9390000  76.3220000  72.5390000  85.7860000  77.6660000
  75.5730000  85.7270000  74.6620000  74.7590000  85.0520000  76.8940000
  75.3770000  86.3870000  73.4620000  73.9750000  87.7710000  71.9810000
  71.5550000  85.7910000  78.6850000  73.7830000  85.0570000  77.8980000
  76.3870000  85.2600000  74.8070000  75.5730000  84.5800000  77.0250000
  76.3620000  86.3700000  72.4240000  73.1720000  88.2520000  71.8150000
  74.9320000  87.7280000  71.0230000  71.7510000  85.1320000  79.8860000
  70.7410000  86.2590000  78.5400000  73.9540000  84.3810000  79.1220000
  76.1500000  87.0130000  71.2520000  77.1760000  85.9010000  72.5610000
  74.7940000  88.1730000  70.1950000  70.7660000  85.1490000  80.9230000
  72.9810000  84.4080000  80.1120000  74.7550000  83.8930000  79.2740000
  76.8170000  86.9900000  70.5760000  70.9780000  84.5050000  82.0950000
  69.9520000  85.6180000  80.7870000  73.1530000  83.7480000  81.3660000
  72.1950000  83.7910000  82.3240000  70.3110000  84.5290000  82.7710000
  73.9560000  83.2670000  81.5320000  72.3340000  83.3460000  83.1520000
  73.8460000  89.7380000  89.5060000  73.6750000  90.4150000  88.2820000
  72.8700000  89.7430000  90.5100000  75.0900000  89.0090000  89.7380000
  72.8740000  90.9030000  88.1300000  74.6480000  90.3880000  87.2920000
  72.0560000  90.2160000  90.3790000  73.0410000  89.0630000  91.7230000
  76.0740000  89.0040000  88.7190000  75.2600000  88.3290000  90.9510000
  75.8790000  89.6630000  87.5180000  74.4760000  91.0480000  86.0380000
  72.0560000  89.0680000  92.7420000  74.2850000  88.3340000  91.9550000
  76.8880000  88.5370000  88.8640000  76.0740000  87.8570000  91.0820000
  76.8630000  89.6470000  86.4810000  73.6730000  91.5290000  85.8720000
  75.4340000  91.0050000  85.0800000  72.2520000  88.4090000  93.9420000
  71.2420000  89.5360000  92.5970000  74.4550000  87.6570000  93.1790000
  76.6520000  90.2900000  85.3090000  77.6770000  89.1780000  86.6170000
  75.2950000  91.4500000  84.2520000  71.2680000  88.4260000  94.9800000
  73.4830000  87.6850000  94.1690000  75.2560000  87.1700000  93.3310000
  77.3180000  90.2670000  84.6320000  71.4790000  87.7820000  96.1520000
  70.4530000  88.8950000  94.8430000  73.6540000  87.0250000  95.4230000
  72.6970000  87.0680000  96.3810000  70.8120000  87.8060000  96.8280000
  74.4570000  86.5440000  95.5880000  72.8350000  86.6230000  97.2090000
  72.0760000  81.0330000  19.2220000  71.9050000  81.7090000  17.9980000
  71.1000000  81.0380000  20.2260000  73.3200000  80.3040000  19.4540000
  71.1040000  82.1970000  17.8460000  72.8780000  81.6820000  17.0080000
  70.2860000  81.5100000  20.0950000  71.2700000  80.3580000  21.4390000
  74.3040000  80.2990000  18.4350000  73.4900000  79.6230000  20.6670000
  74.1080000  80.9580000  17.2340000  72.7060000  82.3420000  15.7540000
  70.2860000  80.3630000  22.4580000  72.5140000  79.6290000  21.6710000
  75.1180000  79.8310000  18.5800000  74.3040000  79.1510000  20.7980000
  75.0930000  80.9410000  16.1970000  71.9030000  82.8230000  15.5880000
  73.6640000  82.2990000  14.7950000  70.4820000  79.7030000  23.6580000
  69.4720000  80.8300000  22.3130000  72.6850000  78.9520000  22.8950000
  74.8810000  81.5850000  15.0250000  75.9070000  80.4720000  16.3330000
  73.5250000  82.7440000  13.9670000  69.4970000  79.7200000  24.6960000
  71.7120000  78.9790000  23.8850000  73.4860000  78.4640000  23.0470000
  75.5480000  81.5610000  14.3480000  69.7090000  79.0770000  25.8680000
  68.6830000  80.1890000  24.5590000  71.8840000  78.3190000  25.1380000
  70.9260000  78.3620000  26.0970000  69.0420000  79.1000000  26.5440000
  72.6870000  77.8380000  25.3040000  71.0650000  77.9170000  26.9250000
  73.5170000  86.1820000  49.7840000  73.6870000  85.5060000  51.0090000
  74.4930000  86.1770000  48.7810000  72.2730000  86.9110000  49.5520000
  74.4890000  85.0180000  51.1600000  72.7150000  85.5330000  51.9980000
  75.3060000  85.7050000  48.9110000  74.3220000  86.8570000  47.5670000
  71.2890000  86.9160000  50.5710000  72.1020000  87.5920000  48.3390000
  71.4840000  86.2570000  51.7720000  72.8870000  84.8730000  53.2520000
  75.3070000  86.8520000  46.5480000  73.0780000  87.5860000  47.3360000
  70.4740000  87.3840000  50.4270000  71.2890000  88.0640000  48.2080000
  70.5000000  86.2740000  52.8090000  73.6890000  84.3920000  53.4180000
  71.9290000  84.9160000  54.2110000  75.1110000  87.5120000  45.3480000
  76.1210000  86.3850000  46.6930000  72.9080000  88.2630000  46.1110000
  70.7110000  85.6300000  53.9820000  69.6850000  86.7430000  52.6730000
  72.0670000  84.4710000  55.0390000  76.0950000  87.4950000  44.3110000
  73.8800000  88.2360000  45.1220000  72.1060000  88.7510000  45.9590000
  70.0450000  85.6540000  54.6580000  75.8840000  88.1380000  43.1380000
  76.9100000  87.0260000  44.4470000  73.7080000  88.8960000  43.8680000
  74.6660000  88.8530000  42.9090000  76.5500000  88.1150000  42.4620000
  72.9060000  89.3770000  43.7020000  74.5280000  89.2980000  42.0810000
  74.0180000  89.4590000  63.8410000  74.1890000  88.7820000  65.0650000
  74.9940000  89.4540000  62.8370000  72.7740000  90.1880000  63.6090000
  74.9900000  88.2950000  65.2170000  73.2160000  88.8100000  66.0550000
  75.8080000  88.9810000  62.9680000  74.8230000  90.1340000  61.6240000
  71.7900000  90.1930000  64.6280000  72.6040000  90.8680000  62.3960000
  71.9850000  89.5340000  65.8290000  73.3880000  88.1500000  67.3090000
  75.8080000  90.1290000  60.6050000  73.5790000  90.8630000  61.3920000
  70.9750000  90.6610000  64.4830000  71.7900000  91.3410000  62.2650000
  71.0010000  89.5510000  66.8660000  74.1910000  87.6690000  67.4750000
  72.4300000  88.1930000  68.2680000  75.6120000  90.7880000  59.4050000
  76.6220000  89.6620000  60.7500000  73.4090000  91.5400000  60.1680000
  71.2120000  88.9070000  68.0380000  70.1860000  90.0200000  66.7300000
  72.5690000  87.7480000  69.0960000  76.5960000  90.7720000  58.3670000
  74.3810000  91.5130000  59.1780000  72.6080000  92.0270000  60.0160000
  70.5460000  88.9300000  68.7150000  76.3850000  91.4150000  57.1950000
  77.4110000  90.3030000  58.5040000  74.2100000  92.1730000  57.9250000
  75.1670000  92.1300000  56.9660000  77.0520000  91.3920000  56.5190000
  73.4070000  92.6540000  57.7590000  75.0290000  92.5750000  56.1380000
  74.5200000  92.7360000  77.8980000  74.6900000  92.0590000  79.1220000
  75.4950000  92.7310000  76.8940000  73.2750000  93.4650000  77.6660000
  75.4910000  91.5720000  79.2740000  73.7170000  92.0860000  80.1120000
  76.3090000  92.2580000  77.0250000  75.3250000  93.4110000  75.6810000
  72.2910000  93.4700000  78.6850000  73.1050000  94.1450000  76.4530000
  72.4870000  92.8110000  79.8860000  73.8890000  91.4270000  81.3660000
  76.3090000  93.4060000  74.6620000  74.0810000  94.1400000  75.4490000
  71.4770000  93.9380000  78.5400000  72.2910000  94.6180000  76.3220000
  71.5020000  92.8280000  80.9230000  74.6920000  90.9450000  81.5320000
  72.9320000  91.4700000  82.3240000  76.1130000  94.0650000  73.4620000
  77.1230000  92.9380000  74.8070000  73.9100000  94.8170000  74.2250000
  71.7140000  92.1840000  82.0950000  70.6880000  93.2960000  80.7870000
  73.0700000  91.0250000  83.1520000  77.0980000  94.0480000  72.4240000
  74.8830000  94.7900000  73.2350000  73.1090000  95.3040000  74.0730000
  71.0470000  92.2070000  82.7710000  76.8860000  94.6920000  71.2520000
  77.9120000  93.5800000  72.5610000  74.7110000  95.4490000  71.9810000
  75.6690000  95.4060000  71.0230000  77.5530000  94.6690000  70.5760000
  73.9080000  95.9310000  71.8150000  75.5300000  95.8510000  70.1950000
  72.5770000  84.3100000  33.2790000  72.4060000  84.9860000  32.0540000
  71.6010000  84.3150000  34.2820000  73.8210000  83.5800000  33.5110000
  71.6050000  85.4740000  31.9030000  73.3790000  84.9590000  31.0650000
  70.7870000  84.7870000  34.1520000  71.7720000  83.6350000  35.4960000
  74.8050000  83.5750000  32.4920000  73.9910000  82.9000000  34.7240000
  74.6100000  84.2350000  31.2910000  73.2070000  85.6190000  29.8110000
  70.7870000  83.6400000  36.5150000  73.0160000  82.9050000  35.7270000
  75.6200000  83.1080000  32.6360000  74.8050000  82.4280000  34.8550000
  75.5940000  84.2180000  30.2540000  72.4050000  86.1000000  29.6450000
  74.1650000  85.5760000  28.8520000  70.9830000  82.9800000  37.7150000
  69.9730000  84.1070000  36.3700000  73.1860000  82.2290000  36.9520000
  75.3830000  84.8610000  29.0810000  76.4090000  83.7490000  30.3900000
  74.0260000  86.0210000  28.0240000  69.9990000  82.9970000  38.7520000
  72.2140000  82.2560000  37.9410000  73.9870000  81.7410000  37.1040000
  76.0490000  84.8380000  28.4050000  70.2100000  82.3540000  39.9250000
  69.1840000  83.4660000  38.6160000  72.3850000  81.5960000  39.1950000
  71.4280000  81.6390000  40.1540000  69.5430000  82.3770000  40.6010000
  73.1880000  81.1150000  39.3610000  71.5660000  81.1940000  40.9820000
  72.0130000  76.3520000   7.6140000  72.1840000  75.6750000   8.8380000
  72.9890000  76.3470000   6.6100000  70.7690000  77.0810000   7.3820000
  72.9850000  75.1880000   8.9900000  71.2110000  75.7020000   9.8280000
  73.8030000  75.8740000   6.7410000  72.8180000  77.0270000   5.3970000
  69.7850000  77.0860000   8.4010000  70.5990000  77.7610000   6.1690000
  69.9800000  76.4270000   9.6010000  71.3830000  75.0420000  11.0820000
  73.8030000  77.0220000   4.3780000  71.5740000  77.7560000   5.1650000
  68.9700000  77.5540000   8.2560000  69.7850000  78.2340000   6.0380000
  68.9960000  76.4430000  10.6390000  72.1850000  74.5610000  11.2470000
  70.4250000  75.0850000  12.0400000  73.6070000  77.6810000   3.1770000
  74.6170000  76.5540000   4.5230000  71.4040000  78.4330000   3.9410000
  69.2070000  75.8000000  11.8110000  68.1810000  76.9120000  10.5020000
  70.5640000  74.6400000  12.8680000  74.5910000  77.6640000   2.1400000
  72.3760000  78.4050000   2.9510000  70.6030000  78.9200000   3.7890000
  68.5410000  75.8230000  12.4870000  74.3800000  78.3080000   0.9680000
  75.4060000  77.1950000   2.2760000  72.2050000  79.0650000   1.6970000
  73.1620000  79.0220000   0.7390000  75.0470000  78.2850000   0.2920000
  71.4020000  79.5460000   1.5310000  73.0240000  79.4670000  -0.0890000
  75.0210000  96.0130000  91.9550000  75.1910000  95.3360000  93.1790000
  75.9970000  96.0080000  90.9510000  73.7770000  96.7420000  91.7230000
  75.9920000  94.8490000  93.3310000  74.2190000  95.3630000  94.1690000
  76.8100000  95.5350000  91.0820000  75.8260000  96.6880000  89.7380000
  72.7920000  96.7470000  92.7420000  73.6060000  97.4220000  90.5100000
  72.9880000  96.0880000  93.9420000  74.3900000  94.7030000  95.4230000
  76.8100000  96.6830000  88.7190000  74.5820000  97.4170000  89.5060000
  71.9780000  97.2140000  92.5970000  72.7920000  97.8950000  90.3790000
  72.0040000  96.1040000  94.9800000  75.1930000  94.2220000  95.5880000
  73.4330000  94.7460000  96.3810000  76.6150000  97.3420000  87.5180000
  77.6250000  96.2150000  88.8640000  74.4110000  98.0940000  88.2820000
  72.2150000  95.4610000  96.1520000  71.1890000  96.5730000  94.8430000
  73.5710000  94.3010000  97.2090000  77.5990000  97.3250000  86.4810000
  75.3840000  98.0660000  87.2920000  73.6100000  98.5810000  88.1300000
  71.5480000  95.4840000  96.8280000  77.3880000  97.9690000  85.3090000
  78.4140000  96.8560000  86.6170000  75.2120000  98.7260000  86.0380000
  76.1700000  98.6830000  85.0800000  78.0540000  97.9460000  84.6320000
  74.4100000  99.2070000  85.8720000  76.0310000  99.1280000  84.2520000
   6.1120000  35.7090000  63.8410000   6.2830000  35.0320000  65.0650000
   7.0880000  35.7040000  62.8370000   4.8680000  36.4380000  63.6090000
   7.0840000  34.5450000  65.2170000   5.3100000  35.0590000  66.0550000
   7.9020000  35.2310000  62.9680000   6.9180000  36.3840000  61.6240000
   3.8840000  36.4430000  64.6280000   4.6980000  37.1180000  62.3960000
   4.0800000  35.7840000  65.8290000   5.4820000  34.4000000  67.3090000
   7.9020000  36.3790000  60.6050000   5.6740000  37.1130000  61.3920000
   3.0700000  36.9110000  64.4830000   3.8840000  37.5910000  62.2650000
   3.0950000  35.8010000  66.8660000   6.2850000  33.9180000  67.4750000
   4.5240000  34.4430000  68.2680000   7.7060000  37.0380000  59.4050000
   8.7160000  35.9110000  60.7500000   5.5030000  37.7900000  60.1680000
   3.3070000  35.1570000  68.0380000   2.2810000  36.2690000  66.7300000
   4.6630000  33.9980000  69.0960000   8.6910000  37.0210000  58.3670000
   6.4760000  37.7630000  59.1780000   4.7020000  38.2770000  60.0160000
   2.6400000  35.1800000  68.7150000   8.4790000  37.6650000  57.1950000
   9.5050000  36.5530000  58.5040000   6.3040000  38.4220000  57.9250000
   7.2620000  38.3790000  56.9660000   9.1460000  37.6420000  56.5190000
   5.5010000  38.9040000  57.7590000   7.1230000  38.8240000  56.1380000
   6.6140000  38.9860000  77.8980000   6.7840000  38.3090000  79.1220000
   7.5890000  38.9810000  76.8940000   5.3700000  39.7150000  77.6660000
   7.5850000  37.8220000  79.2740000   5.8120000  38.3360000  80.1120000
   8.4030000  38.5080000  77.0250000   7.4190000  39.6610000  75.6810000
   4.3850000  39.7200000  78.6850000   5.1990000  40.3950000  76.4530000
   4.5810000  39.0610000  79.8860000   5.9830000  37.6760000  81.3660000
   8.4030000  39.6560000  74.6620000   6.1750000  40.3900000  75.4490000
   3.5710000  40.1870000  78.5400000   4.3850000  40.8680000  76.3220000
   3.5970000  39.0770000  80.9230000   6.7860000  37.1950000  81.5320000
   5.0260000  37.7190000  82.3240000   8.2080000  40.3150000  73.4620000
   9.2180000  39.1880000  74.8070000   6.0040000  41.0670000  74.2250000
   3.8080000  38.4340000  82.0950000   2.7820000  39.5460000  80.7870000
   5.1640000  37.2740000  83.1520000   9.1920000  40.2980000  72.4240000
   6.9770000  41.0390000  73.2350000   5.2030000  41.5540000  74.0730000
   3.1410000  38.4570000  82.7710000   8.9810000  40.9420000  71.2520000
  10.0070000  39.8290000  72.5610000   6.8050000  41.6990000  71.9810000
   7.7630000  41.6560000  71.0230000   9.6470000  40.9190000  70.5760000
   6.0020000  42.1800000  71.8150000   7.6240000  42.1010000  70.1950000
   5.4390000  32.7110000  75.4490000   5.2680000  33.3880000  74.2250000
   4.4630000  32.7160000  76.4530000   6.6830000  31.9820000  75.6810000
   4.4670000  33.8760000  74.0730000   6.2410000  33.3610000  73.2350000
   3.6490000  33.1890000  76.3220000   4.6330000  32.0360000  77.6660000
   7.6670000  31.9770000  74.6620000   6.8530000  31.3020000  76.8940000
   7.4710000  32.6360000  73.4620000   6.0690000  34.0210000  71.9810000
   3.6490000  32.0410000  78.6850000   5.8780000  31.3070000  77.8980000
   8.4810000  31.5100000  74.8070000   7.6670000  30.8300000  77.0250000
   8.4560000  32.6200000  72.4240000   5.2660000  34.5020000  71.8150000
   7.0270000  33.9780000  71.0230000   3.8450000  31.3820000  79.8860000
   2.8350000  32.5090000  78.5400000   6.0480000  30.6300000  79.1220000
   8.2450000  33.2630000  71.2520000   9.2700000  32.1510000  72.5610000
   6.8880000  34.4230000  70.1950000   2.8610000  31.3990000  80.9230000
   5.0750000  30.6580000  80.1120000   6.8490000  30.1430000  79.2740000
   8.9110000  33.2400000  70.5760000   3.0720000  30.7550000  82.0950000
   2.0460000  31.8680000  80.7870000   5.2470000  29.9980000  81.3660000
   4.2900000  30.0410000  82.3240000   2.4050000  30.7790000  82.7710000
   6.0500000  29.5170000  81.5320000   4.4280000  29.5960000  83.1520000
   4.9370000  29.4340000  61.3920000   4.7670000  30.1110000  60.1680000
   3.9620000  29.4400000  62.3960000   6.1810000  28.7050000  61.6240000
   3.9660000  30.5990000  60.0160000   5.7400000  30.0840000  59.1780000
   3.1480000  29.9120000  62.2650000   4.1320000  28.7590000  63.6090000
   7.1660000  28.7000000  60.6050000   6.3520000  28.0250000  62.8370000
   6.9700000  29.3600000  59.4050000   5.5680000  30.7440000  57.9250000
   3.1480000  28.7640000  64.6280000   5.3760000  28.0300000  63.8410000
   7.9800000  28.2330000  60.7500000   7.1660000  27.5530000  62.9680000
   7.9540000  29.3430000  58.3670000   4.7650000  31.2250000  57.7590000
   6.5250000  30.7010000  56.9660000   3.3430000  28.1050000  65.8290000
   2.3340000  29.2320000  64.4830000   5.5470000  27.3540000  65.0650000
   7.7430000  29.9860000  57.1950000   8.7690000  28.8740000  58.5040000
   6.3870000  31.1460000  56.1380000   2.3590000  28.1220000  66.8660000
   4.5740000  27.3810000  66.0550000   6.3480000  26.8660000  65.2170000
   8.4100000  29.9630000  56.5190000   2.5700000  27.4780000  68.0380000
   1.5450000  28.5910000  66.7300000   4.7460000  26.7210000  67.3090000
   3.7880000  26.7640000  68.2680000   1.9040000  27.5020000  68.7150000
   5.5490000  26.2400000  67.4750000   3.9270000  26.3190000  69.0960000
   5.6110000  32.4320000  49.7840000   5.7820000  31.7550000  51.0090000
   6.5870000  32.4270000  48.7810000   4.3670000  33.1610000  49.5520000
   6.5830000  31.2680000  51.1600000   4.8090000  31.7830000  51.9980000
   7.4010000  31.9540000  48.9110000   6.4160000  33.1070000  47.5670000
   3.3830000  33.1660000  50.5710000   4.1960000  33.8410000  48.3390000
   3.5780000  32.5070000  51.7720000   4.9810000  31.1230000  53.2520000
   7.4010000  33.1020000  46.5480000   5.1720000  33.8360000  47.3360000
   2.5680000  33.6340000  50.4270000   3.3830000  34.3140000  48.2080000
   2.5940000  32.5240000  52.8090000   5.7830000  30.6420000  53.4180000
   4.0230000  31.1660000  54.2110000   7.2050000  33.7610000  45.3480000
   8.2150000  32.6340000  46.6930000   5.0020000  34.5130000  46.1110000
   2.8050000  31.8800000  53.9820000   1.7790000  32.9930000  52.6730000
   4.1620000  30.7210000  55.0390000   8.1890000  33.7450000  44.3110000
   5.9740000  34.4860000  45.1220000   4.2010000  35.0000000  45.9590000
   2.1390000  31.9030000  54.6580000   7.9780000  34.3880000  43.1380000
   9.0040000  33.2760000  44.4470000   5.8030000  35.1460000  43.8680000
   6.7600000  35.1030000  42.9090000   8.6450000  34.3650000  42.4620000
   5.0000000  35.6270000  43.7020000   6.6220000  35.5480000  42.0810000
   6.9110000  48.0680000  75.4490000   6.7400000  48.7450000  74.2250000
   5.9350000  48.0740000  76.4530000   8.1550000  47.3390000  75.6810000
   5.9390000  49.2330000  74.0730000   7.7130000  48.7180000  73.2350000
   5.1210000  48.5460000  76.3220000   6.1060000  47.3940000  77.6660000
   9.1390000  47.3340000  74.6620000   8.3260000  46.6590000  76.8940000
   8.9440000  47.9940000  73.4620000   7.5410000  49.3780000  71.9810000
   5.1210000  47.3980000  78.6850000   7.3500000  46.6640000  77.8980000
   9.9540000  46.8670000  74.8070000   9.1390000  46.1870000  77.0250000
   9.9280000  47.9770000  72.4240000   6.7390000  49.8590000  71.8150000
   8.4990000  49.3350000  71.0230000   5.3170000  46.7390000  79.8860000
   4.3070000  47.8660000  78.5400000   7.5200000  45.9880000  79.1220000
   9.7170000  48.6200000  71.2520000  10.7430000  47.5080000  72.5610000
   8.3600000  49.7800000  70.1950000   4.3330000  46.7560000  80.9230000
   6.5480000  46.0150000  80.1120000   8.3210000  45.5000000  79.2740000
  10.3830000  48.5970000  70.5760000   4.5440000  46.1120000  82.0950000
   3.5180000  47.2250000  80.7870000   6.7190000  45.3550000  81.3660000
   5.7620000  45.3980000  82.3240000   3.8770000  46.1360000  82.7710000
   7.5220000  44.8740000  81.5320000   5.9000000  44.9530000  83.1520000
   6.8490000  43.3880000  63.8410000   7.0190000  42.7110000  65.0650000
   7.8240000  43.3820000  62.8370000   5.6040000  44.1170000  63.6090000
   7.8200000  42.2230000  65.2170000   6.0460000  42.7380000  66.0550000
   8.6380000  42.9100000  62.9680000   7.6540000  44.0620000  61.6240000
   4.6200000  44.1220000  64.6280000   5.4340000  44.7970000  62.3960000
   4.8160000  43.4620000  65.8290000   6.2180000  42.0780000  67.3090000
   8.6380000  44.0580000  60.6050000   6.4100000  44.7920000  61.3920000
   3.8060000  44.5890000  64.4830000   4.6200000  45.2690000  62.2650000
   3.8310000  43.4790000  66.8660000   7.0210000  41.5970000  67.4750000
   5.2610000  42.1210000  68.2680000   8.4420000  44.7170000  59.4050000
   9.4520000  43.5900000  60.7500000   6.2390000  45.4680000  60.1680000
   4.0430000  42.8360000  68.0380000   3.0170000  43.9480000  66.7300000
   5.3990000  41.6760000  69.0960000   9.4270000  44.7000000  58.3670000
   7.2120000  45.4410000  59.1780000   5.4380000  45.9560000  60.0160000
   3.3760000  42.8590000  68.7150000   9.2150000  45.3440000  57.1950000
  10.2410000  44.2310000  58.5040000   7.0400000  46.1010000  57.9250000
   7.9980000  46.0580000  56.9660000   9.8820000  45.3200000  56.5190000
   6.2370000  46.5820000  57.7590000   7.8590000  46.5030000  56.1380000
   7.6470000  55.7470000  75.4490000   7.4770000  56.4240000  74.2250000
   6.6710000  55.7520000  76.4530000   8.8910000  55.0180000  75.6810000
   6.6750000  56.9110000  74.0730000   8.4490000  56.3970000  73.2350000
   5.8580000  56.2250000  76.3220000   6.8420000  55.0720000  77.6660000
   9.8750000  55.0130000  74.6620000   9.0620000  54.3380000  76.8940000
   9.6800000  55.6720000  73.4620000   8.2770000  57.0560000  71.9810000
   5.8570000  55.0770000  78.6850000   8.0860000  54.3430000  77.8980000
  10.6900000  54.5450000  74.8070000   9.8750000  53.8650000  77.0250000
  10.6640000  55.6550000  72.4240000   7.4750000  57.5380000  71.8150000
   9.2350000  57.0130000  71.0230000   6.0530000  54.4180000  79.8860000
   5.0430000  55.5450000  78.5400000   8.2560000  53.6660000  79.1220000
  10.4530000  56.2990000  71.2520000  11.4790000  55.1870000  72.5610000
   9.0970000  57.4580000  70.1950000   5.0690000  54.4350000  80.9230000
   7.2840000  53.6930000  80.1120000   9.0580000  53.1790000  79.2740000
  11.1190000  56.2760000  70.5760000   5.2800000  53.7910000  82.0950000
   4.2540000  54.9030000  80.7870000   7.4560000  53.0340000  81.3660000
   6.4980000  53.0770000  82.3240000   4.6140000  53.8140000  82.7710000
   8.2580000  52.5520000  81.5320000   6.6360000  52.6320000  83.1520000
   7.5850000  51.0660000  63.8410000   7.7550000  50.3890000  65.0650000
   8.5600000  51.0610000  62.8370000   6.3410000  51.7950000  63.6090000
   8.5560000  49.9020000  65.2170000   6.7830000  50.4170000  66.0550000
   9.3740000  50.5890000  62.9680000   8.3900000  51.7410000  61.6240000
   5.3560000  51.8000000  64.6280000   6.1700000  52.4750000  62.3960000
   5.5520000  51.1410000  65.8290000   6.9540000  49.7570000  67.3090000
   9.3740000  51.7360000  60.6050000   7.1460000  52.4700000  61.3920000
   4.5420000  52.2680000  64.4830000   5.3560000  52.9480000  62.2650000
   4.5680000  51.1580000  66.8660000   7.7570000  49.2760000  67.4750000
   5.9970000  49.8000000  68.2680000   9.1790000  52.3950000  59.4050000
  10.1890000  51.2690000  60.7500000   6.9750000  53.1470000  60.1680000
   4.7790000  50.5140000  68.0380000   3.7530000  51.6270000  66.7300000
   6.1350000  49.3550000  69.0960000  10.1630000  52.3790000  58.3670000
   7.9480000  53.1200000  59.1780000   6.1740000  53.6340000  60.0160000
   4.1120000  50.5370000  68.7150000   9.9520000  53.0220000  57.1950000
  10.9770000  51.9100000  58.5040000   7.7760000  53.7800000  57.9250000
   8.7340000  53.7370000  56.9660000  10.6180000  52.9990000  56.5190000
   6.9730000  54.2610000  57.7590000   8.5950000  54.1820000  56.1380000
  10.4980000  87.3070000  21.6710000  10.6680000  86.6300000  22.8950000
  11.4730000  87.3020000  20.6670000   9.2530000  88.0360000  21.4390000
  11.4690000  86.1430000  23.0470000   9.6950000  86.6580000  23.8850000
  12.2870000  86.8300000  20.7980000  11.3030000  87.9820000  19.4540000
   8.2690000  88.0410000  22.4580000   9.0830000  88.7160000  20.2260000
   8.4650000  87.3820000  23.6580000   9.8670000  85.9980000  25.1380000
  12.2870000  87.9770000  18.4350000  10.0590000  88.7110000  19.2220000
   7.4550000  88.5090000  22.3130000   8.2690000  89.1890000  20.0950000
   7.4810000  87.3990000  24.6960000  10.6700000  85.5170000  25.3040000
   8.9100000  86.0410000  26.0970000  12.0910000  88.6370000  17.2340000
  13.1010000  87.5100000  18.5800000   9.8880000  89.3880000  17.9980000
   7.6920000  86.7550000  25.8680000   6.6660000  87.8680000  24.5590000
   9.0480000  85.5960000  26.9250000  13.0760000  88.6200000  16.1970000
  10.8610000  89.3610000  17.0080000   9.0870000  89.8760000  17.8460000
   7.0250000  86.7790000  26.5440000  12.8650000  89.2630000  15.0250000
  13.8900000  88.1510000  16.3330000  10.6890000  90.0210000  15.7540000
  11.6470000  89.9780000  14.7950000  13.5310000  89.2400000  14.3480000
   9.8860000  90.5020000  15.5880000  11.5080000  90.4230000  13.9670000
  10.9990000  90.5840000  35.7270000  11.1690000  89.9070000  36.9520000
  11.9750000  90.5790000  34.7240000   9.7550000  91.3130000  35.4960000
  11.9700000  89.4200000  37.1040000  10.1970000  89.9350000  37.9410000
  12.7880000  90.1060000  34.8550000  11.8040000  91.2590000  33.5110000
   8.7700000  91.3180000  36.5150000   9.5840000  91.9930000  34.2820000
   8.9660000  90.6590000  37.7150000  10.3690000  89.2750000  39.1950000
  12.7880000  91.2540000  32.4920000  10.5600000  91.9880000  33.2790000
   7.9560000  91.7860000  36.3700000   8.7710000  92.4660000  34.1520000
   7.9820000  90.6760000  38.7520000  11.1710000  88.7940000  39.3610000
   9.4110000  89.3180000  40.1540000  12.5930000  91.9130000  31.2910000
  13.6030000  90.7860000  32.6360000  10.3890000  92.6650000  32.0540000
   8.1930000  90.0320000  39.9250000   7.1670000  91.1450000  38.6160000
   9.5490000  88.8730000  40.9820000  13.5770000  91.8960000  30.2540000
  11.3620000  92.6380000  31.0650000   9.5880000  93.1520000  31.9030000
   7.5260000  90.0550000  40.6010000  13.3660000  92.5400000  29.0810000
  14.3920000  91.4280000  30.3900000  11.1900000  93.2980000  29.8110000
  12.1480000  93.2540000  28.8520000  14.0320000  92.5170000  28.4050000
  10.3880000  93.7790000  29.6450000  12.0100000  93.7000000  28.0240000
  12.0640000 101.8190000  75.4490000  11.8930000 102.4950000  74.2250000
  11.0880000 101.8240000  76.4530000  13.3080000 101.0900000  75.6810000
  11.0920000 102.9830000  74.0730000  12.8660000 102.4680000  73.2350000
  10.2740000 102.2960000  76.3220000  11.2590000 101.1440000  77.6660000
  14.2920000 101.0850000  74.6620000  13.4780000 100.4090000  76.8940000
  14.0970000 101.7440000  73.4620000  12.6940000 103.1280000  71.9810000
  10.2740000 101.1490000  78.6850000  12.5030000 100.4150000  77.8980000
  15.1060000 100.6170000  74.8070000  14.2920000  99.9370000  77.0250000
  15.0810000 101.7270000  72.4240000  11.8910000 103.6090000  71.8150000
  13.6520000 103.0850000  71.0230000  10.4700000 100.4890000  79.8860000
   9.4600000 101.6160000  78.5400000  12.6730000  99.7380000  79.1220000
  14.8700000 102.3710000  71.2520000  15.8950000 101.2580000  72.5610000
  13.5130000 103.5300000  70.1950000   9.4860000 100.5060000  80.9230000
  11.7000000  99.7650000  80.1120000  13.4740000  99.2500000  79.2740000
  15.5360000 102.3470000  70.5760000   9.6970000  99.8630000  82.0950000
   8.6710000 100.9750000  80.7870000  11.8720000  99.1050000  81.3660000
  10.9150000  99.1480000  82.3240000   9.0300000  99.8860000  82.7710000
  12.6750000  98.6240000  81.5320000  11.0530000  98.7030000  83.1520000
  11.0610000  95.2650000  47.3360000  10.8910000  95.9420000  46.1110000
  10.0850000  95.2700000  48.3390000  12.3050000  94.5360000  47.5670000
  10.0900000  96.4290000  45.9590000  11.8630000  95.9140000  45.1220000
   9.2720000  95.7430000  48.2080000  10.2560000  94.5900000  49.5520000
  13.2900000  94.5310000  46.5480000  12.4760000  93.8560000  48.7810000
  13.0940000  95.1900000  45.3480000  11.6920000  96.5740000  43.8680000
   9.2720000  94.5950000  50.5710000  11.5000000  93.8610000  49.7840000
  14.1040000  94.0630000  46.6930000  13.2900000  93.3830000  48.9110000
  14.0780000  95.1730000  44.3110000  10.8890000  97.0560000  43.7020000
  12.6490000  96.5310000  42.9090000   9.4670000  93.9360000  51.7720000
   8.4570000  95.0630000  50.4270000  11.6710000  93.1840000  51.0090000
  13.8670000  95.8170000  43.1380000  14.8930000  94.7040000  44.4470000
  12.5110000  96.9760000  42.0810000   8.4830000  93.9530000  52.8090000
  10.6980000  93.2110000  51.9980000  12.4720000  92.6970000  51.1600000
  14.5340000  95.7940000  42.4620000   8.6940000  93.3090000  53.9820000
   7.6680000  94.4210000  52.6730000  10.8700000  92.5520000  53.2520000
   9.9120000  92.5950000  54.2110000   8.0280000  93.3320000  54.6580000
  11.6720000  92.0700000  53.4180000  10.0510000  92.1490000  55.0390000
  12.0010000  97.1380000  63.8410000  12.1720000  96.4610000  65.0650000
  12.9770000  97.1330000  62.8370000  10.7570000  97.8670000  63.6090000
  12.9730000  95.9730000  65.2170000  11.1990000  96.4880000  66.0550000
  13.7910000  96.6600000  62.9680000  12.8070000  97.8130000  61.6240000
   9.7730000  97.8720000  64.6280000  10.5870000  98.5470000  62.3960000
   9.9690000  97.2130000  65.8290000  11.3710000  95.8280000  67.3090000
  13.7910000  97.8080000  60.6050000  11.5620000  98.5420000  61.3920000
   8.9590000  98.3390000  64.4830000   9.7730000  99.0190000  62.2650000
   8.9840000  97.2290000  66.8660000  12.1740000  95.3470000  67.4750000
  10.4130000  95.8710000  68.2680000  13.5950000  98.4670000  59.4050000
  14.6050000  97.3400000  60.7500000  11.3920000  99.2190000  60.1680000
   9.1960000  96.5860000  68.0380000   8.1700000  97.6980000  66.7300000
  10.5520000  95.4260000  69.0960000  14.5800000  98.4500000  58.3670000
  12.3650000  99.1910000  59.1780000  10.5910000  99.7060000  60.0160000
   8.5290000  96.6090000  68.7150000  14.3680000  99.0940000  57.1950000
  15.3940000  97.9810000  58.5040000  12.1930000  99.8510000  57.9250000
  13.1500000  99.8080000  56.9660000  15.0350000  99.0700000  56.5190000
  11.3900000 100.3320000  57.7590000  13.0120000 100.2530000  56.1380000
  12.5650000 105.0950000  89.5060000  12.3950000 105.7720000  88.2820000
  11.5890000 105.1010000  90.5100000  13.8090000 104.3660000  89.7380000
  11.5930000 106.2600000  88.1300000  13.3670000 105.7450000  87.2920000
  10.7760000 105.5730000  90.3790000  11.7600000 104.4210000  91.7230000
  14.7930000 104.3610000  88.7190000  13.9800000 103.6860000  90.9510000
  14.5980000 105.0210000  87.5180000  13.1950000 106.4050000  86.0380000
  10.7750000 104.4250000  92.7420000  13.0040000 103.6910000  91.9550000
  15.6080000 103.8940000  88.8640000  14.7930000 103.2140000  91.0820000
  15.5820000 105.0040000  86.4810000  12.3930000 106.8860000  85.8720000
  14.1530000 106.3620000  85.0800000  10.9710000 103.7660000  93.9420000
   9.9610000 104.8930000  92.5970000  13.1740000 103.0150000  93.1790000
  15.3710000 105.6470000  85.3090000  16.3970000 104.5350000  86.6170000
  14.0150000 106.8070000  84.2520000   9.9870000 103.7830000  94.9800000
  12.2020000 103.0420000  94.1690000  13.9760000 102.5270000  93.3310000
  16.0370000 105.6240000  84.6320000  10.1980000 103.1390000  96.1520000
   9.1720000 104.2520000  94.8430000  12.3740000 102.3820000  95.4230000
  11.4160000 102.4250000  96.3810000   9.5320000 103.1630000  96.8280000
  13.1760000 101.9010000  95.5880000  11.5540000 101.9800000  97.2090000
   7.8820000  60.1490000  61.3920000   7.7110000  60.8260000  60.1680000
   6.9060000  60.1540000  62.3960000   9.1260000  59.4200000  61.6240000
   6.9100000  61.3130000  60.0160000   8.6840000  60.7980000  59.1780000
   6.0920000  60.6260000  62.2650000   7.0770000  59.4740000  63.6090000
  10.1100000  59.4150000  60.6050000   9.2970000  58.7400000  62.8370000
   9.9150000  60.0740000  59.4050000   8.5120000  61.4580000  57.9250000
   6.0920000  59.4790000  64.6280000   8.3210000  58.7450000  63.8410000
  10.9250000  58.9470000  60.7500000  10.1100000  58.2670000  62.9680000
  10.8990000  60.0570000  58.3670000   7.7100000  61.9390000  57.7590000
   9.4700000  61.4150000  56.9660000   6.2880000  58.8200000  65.8290000
   5.2780000  59.9460000  64.4830000   8.4910000  58.0680000  65.0650000
  10.6880000  60.7010000  57.1950000  11.7140000  59.5880000  58.5040000
   9.3310000  61.8600000  56.1380000   5.3040000  58.8360000  66.8660000
   7.5190000  58.0950000  66.0550000   9.2920000  57.5800000  65.2170000
  11.3540000  60.6770000  56.5190000   5.5150000  58.1930000  68.0380000
   4.4890000  59.3050000  66.7300000   7.6900000  57.4350000  67.3090000
   6.7330000  57.4780000  68.2680000   4.8480000  58.2160000  68.7150000
   8.4930000  56.9540000  67.4750000   6.8710000  57.0330000  69.0960000
   4.8750000  24.7540000  49.7840000   5.0450000  24.0770000  51.0090000
   5.8510000  24.7480000  48.7810000   3.6310000  25.4830000  49.5520000
   5.8470000  23.5890000  51.1600000   4.0730000  24.1040000  51.9980000
   6.6640000  24.2760000  48.9110000   5.6800000  25.4280000  47.5670000
   2.6470000  25.4880000  50.5710000   3.4600000  26.1630000  48.3390000
   2.8420000  24.8280000  51.7720000   4.2450000  23.4440000  53.2520000
   6.6650000  25.4240000  46.5480000   4.4360000  26.1580000  47.3360000
   1.8320000  25.9550000  50.4270000   2.6470000  26.6350000  48.2080000
   1.8580000  24.8450000  52.8090000   5.0470000  22.9630000  53.4180000
   3.2870000  23.4870000  54.2110000   6.4690000  26.0830000  45.3480000
   7.4790000  24.9560000  46.6930000   4.2660000  26.8340000  46.1110000
   2.0690000  24.2020000  53.9820000   1.0430000  25.3140000  52.6730000
   3.4250000  23.0420000  55.0390000   7.4530000  26.0660000  44.3110000
   5.2380000  26.8070000  45.1220000   3.4640000  27.3220000  45.9590000
   1.4030000  24.2250000  54.6580000   7.2420000  26.7100000  43.1380000
   8.2680000  25.5970000  44.4470000   5.0660000  27.4670000  43.8680000
   6.0240000  27.4240000  42.9090000   7.9080000  26.6860000  42.4620000
   4.2640000  27.9480000  43.7020000   5.8860000  27.8690000  42.0810000
   5.9400000  35.9880000  89.5060000   5.7690000  36.6650000  88.2820000
   4.9640000  35.9930000  90.5100000   7.1840000  35.2590000  89.7380000
   4.9680000  37.1520000  88.1300000   6.7420000  36.6380000  87.2920000
   4.1500000  36.4660000  90.3790000   5.1350000  35.3130000  91.7230000
   8.1680000  35.2540000  88.7190000   7.3550000  34.5790000  90.9510000
   7.9730000  35.9130000  87.5180000   6.5700000  37.2970000  86.0380000
   4.1500000  35.3180000  92.7420000   6.3790000  34.5840000  91.9550000
   8.9830000  34.7860000  88.8640000   8.1680000  34.1060000  91.0820000
   8.9570000  35.8960000  86.4810000   5.7680000  37.7790000  85.8720000
   7.5280000  37.2540000  85.0800000   4.3460000  34.6590000  93.9420000
   3.3360000  35.7860000  92.5970000   6.5490000  33.9070000  93.1790000
   8.7460000  36.5400000  85.3090000   9.7720000  35.4280000  86.6170000
   7.3890000  37.7000000  84.2520000   3.3620000  34.6760000  94.9800000
   5.5770000  33.9340000  94.1690000   7.3500000  33.4200000  93.3310000
   9.4120000  36.5170000  84.6320000   3.5730000  34.0320000  96.1520000
   2.5470000  35.1450000  94.8430000   5.7480000  33.2750000  95.4230000
   4.7910000  33.3180000  96.3810000   2.9060000  34.0550000  96.8280000
   6.5510000  32.7930000  95.5880000   4.9290000  32.8730000  97.2090000
   4.6710000  30.5590000  33.2790000   4.5010000  31.2360000  32.0540000
   3.6950000  30.5650000  34.2820000   5.9150000  29.8300000  33.5110000
   3.6990000  31.7240000  31.9030000   5.4730000  31.2090000  31.0650000
   2.8820000  31.0370000  34.1520000   3.8660000  29.8840000  35.4960000
   6.8990000  29.8250000  32.4920000   6.0860000  29.1500000  34.7240000
   6.7040000  30.4850000  31.2910000   5.3010000  31.8690000  29.8110000
   2.8810000  29.8890000  36.5150000   5.1100000  29.1550000  35.7270000
   7.7140000  29.3580000  32.6360000   6.8990000  28.6780000  34.8550000
   7.6880000  30.4680000  30.2540000   4.4990000  32.3500000  29.6450000
   6.2590000  31.8260000  28.8520000   3.0770000  29.2300000  37.7150000
   2.0670000  30.3570000  36.3700000   5.2800000  28.4790000  36.9520000
   7.4770000  31.1110000  29.0810000   8.5030000  29.9990000  30.3900000
   6.1210000  32.2710000  28.0240000   2.0930000  29.2470000  38.7520000
   4.3080000  28.5060000  37.9410000   6.0820000  27.9910000  37.1040000
   8.1430000  31.0880000  28.4050000   2.3040000  28.6030000  39.9250000
   1.2780000  29.7160000  38.6160000   4.4800000  27.8460000  39.1950000
   3.5220000  27.8890000  40.1540000   1.6380000  28.6270000  40.6010000
   5.2820000  27.3650000  39.3610000   3.6600000  27.4440000  40.9820000
   6.6760000  43.6670000  89.5060000   6.5060000  44.3430000  88.2820000
   5.7000000  43.6720000  90.5100000   7.9200000  42.9380000  89.7380000
   5.7040000  44.8310000  88.1300000   7.4780000  44.3160000  87.2920000
   4.8870000  44.1440000  90.3790000   5.8710000  42.9920000  91.7230000
   8.9040000  42.9330000  88.7190000   8.0910000  42.2570000  90.9510000
   8.7090000  43.5920000  87.5180000   7.3060000  44.9760000  86.0380000
   4.8860000  42.9970000  92.7420000   7.1150000  42.2630000  91.9550000
   9.7190000  42.4650000  88.8640000   8.9040000  41.7850000  91.0820000
   9.6930000  43.5750000  86.4810000   6.5040000  45.4570000  85.8720000
   8.2640000  44.9330000  85.0800000   5.0820000  42.3370000  93.9420000
   4.0720000  43.4640000  92.5970000   7.2850000  41.5860000  93.1790000
   9.4820000  44.2190000  85.3090000  10.5080000  43.1060000  86.6170000
   8.1260000  45.3780000  84.2520000   4.0980000  42.3540000  94.9800000
   6.3130000  41.6130000  94.1690000   8.0870000  41.0980000  93.3310000
  10.1480000  44.1950000  84.6320000   4.3090000  41.7110000  96.1520000
   3.2830000  42.8230000  94.8430000   6.4850000  40.9530000  95.4230000
   5.5270000  40.9960000  96.3810000   3.6430000  41.7340000  96.8280000
   7.2870000  40.4720000  95.5880000   5.6650000  40.5510000  97.2090000
   5.4070000  38.2380000  33.2790000   5.2370000  38.9150000  32.0540000
   4.4310000  38.2430000  34.2820000   6.6510000  37.5090000  33.5110000
   4.4350000  39.4020000  31.9030000   6.2090000  38.8870000  31.0650000
   3.6180000  38.7160000  34.1520000   4.6020000  37.5630000  35.4960000
   7.6360000  37.5040000  32.4920000   6.8220000  36.8290000  34.7240000
   7.4400000  38.1630000  31.2910000   6.0370000  39.5470000  29.8110000
   3.6180000  37.5680000  36.5150000   5.8460000  36.8340000  35.7270000
   8.4500000  37.0360000  32.6360000   7.6350000  36.3560000  34.8550000
   8.4240000  38.1460000  30.2540000   5.2350000  40.0290000  29.6450000
   6.9950000  39.5040000  28.8520000   3.8130000  36.9090000  37.7150000
   2.8030000  38.0360000  36.3700000   6.0160000  36.1570000  36.9520000
   8.2130000  38.7900000  29.0810000   9.2390000  37.6770000  30.3900000
   6.8570000  39.9490000  28.0240000   2.8290000  36.9260000  38.7520000
   5.0440000  36.1840000  37.9410000   6.8180000  35.6700000  37.1040000
   8.8790000  38.7670000  28.4050000   3.0400000  36.2820000  39.9250000
   2.0140000  37.3940000  38.6160000   5.2160000  35.5250000  39.1950000
   4.2580000  35.5680000  40.1540000   2.3740000  36.3050000  40.6010000
   6.0180000  35.0430000  39.3610000   4.3960000  35.1220000  40.9820000
   5.9080000  41.5150000  47.3360000   5.7380000  42.1920000  46.1110000
   4.9330000  41.5200000  48.3390000   7.1520000  40.7860000  47.5670000
   4.9370000  42.6790000  45.9590000   6.7110000  42.1640000  45.1220000
   4.1190000  41.9920000  48.2080000   5.1030000  40.8400000  49.5520000
   8.1370000  40.7810000  46.5480000   7.3230000  40.1060000  48.7810000
   7.9410000  41.4400000  45.3480000   6.5390000  42.8240000  43.8680000
   4.1190000  40.8450000  50.5710000   6.3470000  40.1110000  49.7840000
   8.9510000  40.3130000  46.6930000   8.1370000  39.6330000  48.9110000
   8.9250000  41.4230000  44.3110000   5.7360000  43.3050000  43.7020000
   7.4960000  42.7810000  42.9090000   4.3140000  40.1860000  51.7720000
   3.3050000  41.3120000  50.4270000   6.5180000  39.4340000  51.0090000
   8.7140000  42.0670000  43.1380000   9.7400000  40.9540000  44.4470000
   7.3580000  43.2260000  42.0810000   3.3300000  40.2020000  52.8090000
   5.5450000  39.4610000  51.9980000   7.3190000  38.9460000  51.1600000
   9.3810000  42.0430000  42.4620000   3.5410000  39.5590000  53.9820000
   2.5160000  40.6710000  52.6730000   5.7170000  38.8010000  53.2520000
   4.7590000  38.8440000  54.2110000   2.8750000  39.5820000  54.6580000
   6.5200000  38.3200000  53.4180000   4.8980000  38.3990000  55.0390000
   7.0830000  47.7890000  49.7840000   7.2540000  47.1130000  51.0090000
   8.0590000  47.7840000  48.7810000   5.8390000  48.5180000  49.5520000
   8.0550000  46.6250000  51.1600000   6.2810000  47.1400000  51.9980000
   8.8730000  47.3120000  48.9110000   7.8890000  48.4640000  47.5670000
   4.8550000  48.5230000  50.5710000   5.6690000  49.1990000  48.3390000
   5.0510000  47.8640000  51.7720000   6.4530000  46.4800000  53.2520000
   8.8730000  48.4590000  46.5480000   6.6440000  49.1930000  47.3360000
   4.0410000  48.9910000  50.4270000   4.8550000  49.6710000  48.2080000
   4.0660000  47.8810000  52.8090000   7.2560000  45.9990000  53.4180000
   5.4950000  46.5230000  54.2110000   8.6770000  49.1190000  45.3480000
   9.6870000  47.9920000  46.6930000   6.4740000  49.8700000  46.1110000
   4.2780000  47.2370000  53.9820000   3.2520000  48.3500000  52.6730000
   5.6340000  46.0780000  55.0390000   9.6620000  49.1020000  44.3110000
   7.4470000  49.8430000  45.1220000   5.6730000  50.3580000  45.9590000
   3.6110000  47.2610000  54.6580000   9.4500000  49.7450000  43.1380000
  10.4760000  48.6330000  44.4470000   7.2750000  50.5030000  43.8680000
   8.2320000  50.4600000  42.9090000  10.1170000  49.7220000  42.4620000
   6.4720000  50.9840000  43.7020000   8.0940000  50.9050000  42.0810000
   6.5820000  44.5120000  35.7270000   6.7530000  43.8360000  36.9520000
   7.5580000  44.5070000  34.7240000   5.3380000  45.2420000  35.4960000
   7.5540000  43.3480000  37.1040000   5.7800000  43.8630000  37.9410000
   8.3720000  44.0350000  34.8550000   7.3870000  45.1870000  33.5110000
   4.3540000  45.2470000  36.5150000   5.1670000  45.9220000  34.2820000
   4.5490000  44.5870000  37.7150000   5.9520000  43.2030000  39.1950000
   8.3720000  45.1830000  32.4920000   6.1430000  45.9170000  33.2790000
   3.5390000  45.7140000  36.3700000   4.3540000  46.3940000  34.1520000
   3.5650000  44.6040000  38.7520000   6.7540000  42.7220000  39.3610000
   4.9940000  43.2460000  40.1540000   8.1760000  45.8420000  31.2910000
   9.1860000  44.7150000  32.6360000   5.9730000  46.5930000  32.0540000
   3.7760000  43.9610000  39.9250000   2.7500000  45.0730000  38.6160000
   5.1330000  42.8010000  40.9820000   9.1600000  45.8250000  30.2540000
   6.9450000  46.5660000  31.0650000   5.1720000  47.0810000  31.9030000
   3.1100000  43.9840000  40.6010000   8.9490000  46.4680000  29.0810000
   9.9750000  45.3560000  30.3900000   6.7740000  47.2260000  29.8110000
   7.7310000  47.1830000  28.8520000   9.6160000  46.4450000  28.4050000
   5.9710000  47.7070000  29.6450000   7.5930000  47.6280000  28.0240000
   9.5570000  85.4340000   5.1650000   9.3870000  86.1110000   3.9410000
   8.5820000  85.4400000   6.1690000  10.8020000  84.7050000   5.3970000
   8.5860000  86.5990000   3.7890000  10.3600000  86.0840000   2.9510000
   7.7680000  85.9120000   6.0380000   8.7520000  84.7600000   7.3820000
  11.7860000  84.7000000   4.3780000  10.9720000  84.0250000   6.6100000
  11.5900000  85.3600000   3.1770000  10.1880000  86.7440000   1.6970000
   7.7680000  84.7640000   8.4010000   9.9960000  84.0300000   7.6140000
  12.6000000  84.2330000   4.5230000  11.7860000  83.5530000   6.7410000
  12.5740000  85.3430000   2.1400000   9.3850000  87.2250000   1.5310000
  11.1450000  86.7010000   0.7390000   7.9640000  84.1050000   9.6010000
   6.9540000  85.2320000   8.2560000  10.1670000  83.3540000   8.8380000
  12.3630000  85.9860000   0.9680000  13.3890000  84.8740000   2.2760000
  11.0070000  87.1460000  -0.0890000   6.9790000  84.1220000  10.6390000
   9.1940000  83.3810000   9.8280000  10.9680000  82.8660000   8.9900000
  13.0300000  85.9630000   0.2920000   7.1900000  83.4780000  11.8110000
   6.1650000  84.5910000  10.5020000   9.3660000  82.7210000  11.0820000
   8.4080000  82.7640000  12.0400000   6.5240000  83.5020000  12.4870000
  10.1690000  82.2400000  11.2470000   8.5470000  82.3190000  12.8680000
   2.6970000  11.9250000  19.2220000   2.5270000  12.6020000  17.9980000
   1.7220000  11.9310000  20.2260000   3.9420000  11.1960000  19.4540000
   1.7260000  13.0900000  17.8460000   3.5000000  12.5750000  17.0080000
   0.9080000  12.4030000  20.0950000   1.8920000  11.2500000  21.4390000
   4.9260000  11.1910000  18.4350000   4.1120000  10.5160000  20.6670000
   4.7300000  11.8510000  17.2340000   3.3280000  13.2350000  15.7540000
   0.9080000  11.2550000  22.4580000   3.1360000  10.5210000  21.6710000
   5.7400000  10.7240000  18.5800000   4.9260000  10.0440000  20.7980000
   5.7150000  11.8340000  16.1970000   2.5250000  13.7160000  15.5880000
   4.2850000  13.1920000  14.7950000   1.1040000  10.5960000  23.6580000
   0.0940000  11.7230000  22.3130000   3.3070000   9.8450000  22.8950000
   5.5030000  12.4770000  15.0250000   6.5290000  11.3650000  16.3330000
   4.1470000  13.6370000  13.9670000   0.1190000  10.6130000  24.6960000
   2.3340000   9.8720000  23.8850000   4.1080000   9.3570000  23.0470000
   6.1700000  12.4540000  14.3480000   0.3310000   9.9690000  25.8680000
  -0.6950000  11.0820000  24.5590000   2.5060000   9.2120000  25.1380000
   1.5480000   9.2550000  26.0970000  -0.3360000   9.9930000  26.5440000
   3.3090000   8.7310000  25.3040000   1.6870000   8.8100000  26.9250000
   3.6380000  13.7980000  35.7270000   3.8080000  13.1210000  36.9520000
   4.6130000  13.7930000  34.7240000   2.3940000  14.5270000  35.4960000
   4.6090000  12.6340000  37.1040000   2.8360000  13.1490000  37.9410000
   5.4270000  13.3200000  34.8550000   4.4430000  14.4730000  33.5110000
   1.4090000  14.5320000  36.5150000   2.2230000  15.2070000  34.2820000
   1.6050000  13.8730000  37.7150000   3.0070000  12.4890000  39.1950000
   5.4270000  14.4680000  32.4920000   3.1990000  15.2020000  33.2790000
   0.5950000  15.0000000  36.3700000   1.4090000  15.6800000  34.1520000
   0.6210000  13.8900000  38.7520000   3.8100000  12.0080000  39.3610000
   2.0500000  12.5320000  40.1540000   5.2320000  15.1270000  31.2910000
   6.2420000  14.0000000  32.6360000   3.0280000  15.8790000  32.0540000
   0.8320000  13.2460000  39.9250000  -0.1940000  14.3590000  38.6160000
   2.1880000  12.0870000  40.9820000   6.2160000  15.1110000  30.2540000
   4.0010000  15.8520000  31.0650000   2.2270000  16.3660000  31.9030000
   0.1650000  13.2690000  40.6010000   6.0050000  15.7540000  29.0810000
   7.0300000  14.6420000  30.3900000   3.8290000  16.5120000  29.8110000
   4.7870000  16.4690000  28.8520000   6.6710000  15.7310000  28.4050000
   3.0260000  16.9930000  29.6450000   4.6480000  16.9140000  28.0240000
   2.1960000   8.6490000   5.1650000   2.0260000   9.3250000   3.9410000
   1.2200000   8.6540000   6.1690000   3.4400000   7.9190000   5.3970000
   1.2250000   9.8130000   3.7890000   2.9980000   9.2980000   2.9510000
   0.4070000   9.1260000   6.0380000   1.3910000   7.9740000   7.3820000
   4.4250000   7.9140000   4.3780000   3.6110000   7.2390000   6.6100000
   4.2290000   8.5740000   3.1770000   2.8270000   9.9580000   1.6970000
   0.4070000   7.9780000   8.4010000   2.6350000   7.2440000   7.6140000
   5.2390000   7.4470000   4.5230000   4.4250000   6.7670000   6.7410000
   5.2130000   8.5570000   2.1400000   2.0240000  10.4390000   1.5310000
   3.7840000   9.9150000   0.7390000   0.6020000   7.3190000   9.6010000
  -0.4080000   8.4460000   8.2560000   2.8060000   6.5680000   8.8380000
   5.0020000   9.2000000   0.9680000   6.0280000   8.0880000   2.2760000
   3.6460000  10.3600000  -0.0890000  -0.3820000   7.3360000  10.6390000
   1.8330000   6.5950000   9.8280000   3.6070000   6.0800000   8.9900000
   5.6690000   9.1770000   0.2920000  -0.1710000   6.6930000  11.8110000
  -1.1970000   7.8050000  10.5020000   2.0050000   5.9350000  11.0820000
   1.0470000   5.9780000  12.0400000  -0.8370000   6.7160000  12.4870000
   2.8070000   5.4540000  11.2470000   1.1860000   5.5330000  12.8680000
   4.2010000  21.7560000  61.3920000   4.0310000  22.4330000  60.1680000
   3.2260000  21.7610000  62.3960000   5.4450000  21.0270000  61.6240000
   3.2300000  22.9200000  60.0160000   5.0030000  22.4050000  59.1780000
   2.4120000  22.2330000  62.2650000   3.3960000  21.0810000  63.6090000
   6.4300000  21.0220000  60.6050000   5.6160000  20.3470000  62.8370000
   6.2340000  21.6810000  59.4050000   4.8320000  23.0650000  57.9250000
   2.4120000  21.0860000  64.6280000   4.6400000  20.3520000  63.8410000
   7.2440000  20.5540000  60.7500000   6.4300000  19.8740000  62.9680000
   7.2180000  21.6640000  58.3670000   4.0290000  23.5460000  57.7590000
   5.7890000  23.0220000  56.9660000   2.6070000  20.4270000  65.8290000
   1.5970000  21.5530000  64.4830000   4.8110000  19.6750000  65.0650000
   7.0070000  22.3080000  57.1950000   8.0330000  21.1950000  58.5040000
   5.6510000  23.4670000  56.1380000   1.6230000  20.4430000  66.8660000
   3.8380000  19.7020000  66.0550000   5.6120000  19.1880000  65.2170000
   7.6740000  22.2840000  56.5190000   1.8340000  19.8000000  68.0380000
   0.8080000  20.9120000  66.7300000   4.0100000  19.0420000  67.3090000
   3.0520000  19.0850000  68.2680000   1.1680000  19.8230000  68.7150000
   4.8120000  18.5610000  67.4750000   3.1910000  18.6400000  69.0960000
   5.1410000  23.6290000  77.8980000   5.3120000  22.9520000  79.1220000
   6.1170000  23.6230000  76.8940000   3.8970000  24.3580000  77.6660000
   6.1130000  22.4640000  79.2740000   4.3390000  22.9790000  80.1120000
   6.9310000  23.1510000  77.0250000   5.9470000  24.3040000  75.6810000
   2.9130000  24.3630000  78.6850000   3.7270000  25.0380000  76.4530000
   3.1090000  23.7030000  79.8860000   4.5110000  22.3190000  81.3660000
   6.9310000  24.2990000  74.6620000   4.7030000  25.0330000  75.4490000
   2.0990000  24.8300000  78.5400000   2.9130000  25.5100000  76.3220000
   2.1240000  23.7200000  80.9230000   5.3140000  21.8380000  81.5320000
   3.5530000  22.3620000  82.3240000   6.7350000  24.9580000  73.4620000
   7.7450000  23.8310000  74.8070000   4.5320000  25.7090000  74.2250000
   2.3360000  23.0770000  82.0950000   1.3100000  24.1890000  80.7870000
   3.6920000  21.9170000  83.1520000   7.7200000  24.9410000  72.4240000
   5.5050000  25.6820000  73.2350000   3.7310000  26.1970000  74.0730000
   1.6690000  23.1000000  82.7710000   7.5080000  25.5850000  71.2520000
   8.5340000  24.4720000  72.5610000   5.3330000  26.3420000  71.9810000
   6.2910000  26.2990000  71.0230000   8.1750000  25.5610000  70.5760000
   4.5300000  26.8230000  71.8150000   6.1520000  26.7440000  70.1950000
   5.2040000  28.3100000  89.5060000   5.0330000  28.9860000  88.2820000
   4.2280000  28.3150000  90.5100000   6.4480000  27.5800000  89.7380000
   4.2320000  29.4740000  88.1300000   6.0060000  28.9590000  87.2920000
   3.4140000  28.7870000  90.3790000   4.3990000  27.6350000  91.7230000
   7.4320000  27.5750000  88.7190000   6.6180000  26.9000000  90.9510000
   7.2370000  28.2350000  87.5180000   5.8340000  29.6190000  86.0380000
   3.4140000  27.6390000  92.7420000   5.6430000  26.9050000  91.9550000
   8.2470000  27.1080000  88.8640000   7.4320000  26.4280000  91.0820000
   8.2210000  28.2180000  86.4810000   5.0320000  30.1000000  85.8720000
   6.7920000  29.5760000  85.0800000   3.6100000  26.9800000  93.9420000
   2.6000000  28.1070000  92.5970000   5.8130000  26.2290000  93.1790000
   8.0100000  28.8610000  85.3090000   9.0360000  27.7490000  86.6170000
   6.6530000  30.0210000  84.2520000   2.6260000  26.9970000  94.9800000
   4.8410000  26.2560000  94.1690000   6.6140000  25.7410000  93.3310000
   8.6760000  28.8380000  84.6320000   2.8370000  26.3540000  96.1520000
   1.8110000  27.4660000  94.8430000   5.0120000  25.5960000  95.4230000
   4.0550000  25.6390000  96.3810000   2.1700000  26.3770000  96.8280000
   5.8150000  25.1150000  95.5880000   4.1930000  25.1940000  97.2090000
   4.1390000  17.0750000  49.7840000   4.3090000  16.3980000  51.0090000
   5.1150000  17.0700000  48.7810000   2.8950000  17.8040000  49.5520000
   5.1110000  15.9110000  51.1600000   3.3370000  16.4250000  51.9980000
   5.9280000  16.5970000  48.9110000   4.9440000  17.7500000  47.5670000
   1.9100000  17.8090000  50.5710000   2.7240000  18.4840000  48.3390000
   2.1060000  17.1500000  51.7720000   3.5090000  15.7660000  53.2520000
   5.9280000  17.7450000  46.5480000   3.7000000  18.4790000  47.3360000
   1.0960000  18.2770000  50.4270000   1.9110000  18.9570000  48.2080000
   1.1220000  17.1670000  52.8090000   4.3110000  15.2840000  53.4180000
   2.5510000  15.8090000  54.2110000   5.7330000  18.4040000  45.3480000
   6.7430000  17.2770000  46.6930000   3.5300000  19.1560000  46.1110000
   1.3330000  16.5230000  53.9820000   0.3070000  17.6350000  52.6730000
   2.6890000  15.3630000  55.0390000   6.7170000  18.3870000  44.3110000
   4.5020000  19.1290000  45.1220000   2.7280000  19.6430000  45.9590000
   0.6670000  16.5460000  54.6580000   6.5060000  19.0310000  43.1380000
   7.5320000  17.9190000  44.4470000   4.3300000  19.7880000  43.8680000
   5.2880000  19.7450000  42.9090000   7.1720000  19.0080000  42.4620000
   3.5280000  20.2700000  43.7020000   5.1500000  20.1900000  42.0810000
   3.8730000  18.2000000  21.6710000   4.0430000  17.5230000  22.8950000
   4.8480000  18.1950000  20.6670000   2.6280000  18.9290000  21.4390000
   4.8440000  17.0360000  23.0470000   3.0700000  17.5500000  23.8850000
   5.6620000  17.7220000  20.7980000   4.6780000  18.8750000  19.4540000
   1.6440000  18.9340000  22.4580000   2.4580000  19.6090000  20.2260000
   1.8400000  18.2750000  23.6580000   3.2420000  16.8900000  25.1380000
   5.6620000  18.8700000  18.4350000   3.4340000  19.6040000  19.2220000
   0.8300000  19.4020000  22.3130000   1.6440000  20.0820000  20.0950000
   0.8550000  18.2910000  24.6960000   4.0450000  16.4090000  25.3040000
   2.2850000  16.9340000  26.0970000   5.4660000  19.5290000  17.2340000
   6.4760000  18.4020000  18.5800000   3.2630000  20.2810000  17.9980000
   1.0670000  17.6480000  25.8680000   0.0410000  18.7600000  24.5590000
   2.4230000  16.4880000  26.9250000   6.4510000  19.5120000  16.1970000
   4.2360000  20.2530000  17.0080000   2.4620000  20.7680000  17.8460000
   0.4000000  17.6710000  26.5440000   6.2390000  20.1560000  15.0250000
   7.2650000  19.0430000  16.3330000   4.0640000  20.9130000  15.7540000
   5.0220000  20.8700000  14.7950000   6.9060000  20.1330000  14.3480000
   3.2610000  21.3940000  15.5880000   4.8830000  21.3150000  13.9670000
   4.3740000  21.4770000  35.7270000   4.5440000  20.8000000  36.9520000
   5.3500000  21.4720000  34.7240000   3.1300000  22.2060000  35.4960000
   5.3450000  20.3120000  37.1040000   3.5720000  20.8270000  37.9410000
   6.1630000  20.9990000  34.8550000   5.1790000  22.1520000  33.5110000
   2.1450000  22.2110000  36.5150000   2.9590000  22.8860000  34.2820000
   2.3410000  21.5510000  37.7150000   3.7430000  20.1670000  39.1950000
   6.1630000  22.1470000  32.4920000   3.9350000  22.8810000  33.2790000
   1.3310000  22.6780000  36.3700000   2.1450000  23.3580000  34.1520000
   1.3570000  21.5680000  38.7520000   4.5460000  19.6860000  39.3610000
   2.7860000  20.2100000  40.1540000   5.9680000  22.8060000  31.2910000
   6.9780000  21.6790000  32.6360000   3.7640000  23.5580000  32.0540000
   1.5680000  20.9250000  39.9250000   0.5420000  22.0370000  38.6160000
   2.9240000  19.7650000  40.9820000   6.9520000  22.7890000  30.2540000
   4.7370000  23.5300000  31.0650000   2.9630000  24.0450000  31.9030000
   0.9010000  20.9480000  40.6010000   6.7410000  23.4330000  29.0810000
   7.7670000  22.3200000  30.3900000   4.5650000  24.1900000  29.8110000
   5.5230000  24.1470000  28.8520000   7.4070000  23.4090000  28.4050000
   3.7630000  24.6710000  29.6450000   5.3840000  24.5920000  28.0240000
   4.6090000  25.8780000  21.6710000   4.7790000  25.2020000  22.8950000
   5.5840000  25.8730000  20.6670000   3.3650000  26.6080000  21.4390000
   5.5800000  24.7140000  23.0470000   3.8060000  25.2290000  23.8850000
   6.3980000  25.4010000  20.7980000   5.4140000  26.5530000  19.4540000
   2.3800000  26.6120000  22.4580000   3.1940000  27.2880000  20.2260000
   2.5760000  25.9530000  23.6580000   3.9780000  24.5690000  25.1380000
   6.3980000  26.5480000  18.4350000   4.1700000  27.2830000  19.2220000
   1.5660000  27.0800000  22.3130000   2.3800000  27.7600000  20.0950000
   1.5920000  25.9700000  24.6960000   4.7810000  24.0880000  25.3040000
   3.0210000  24.6120000  26.0970000   6.2030000  27.2080000  17.2340000
   7.2120000  26.0810000  18.5800000   3.9990000  27.9590000  17.9980000
   1.8030000  25.3270000  25.8680000   0.7770000  26.4390000  24.5590000
   3.1590000  24.1670000  26.9250000   7.1870000  27.1910000  16.1970000
   4.9720000  27.9320000  17.0080000   3.1980000  28.4470000  17.8460000
   1.1360000  25.3500000  26.5440000   6.9760000  27.8340000  15.0250000
   8.0010000  26.7220000  16.3330000   4.8000000  28.5920000  15.7540000
   5.7580000  28.5490000  14.7950000   7.6420000  27.8110000  14.3480000
   3.9970000  29.0730000  15.5880000   5.6190000  28.9940000  13.9670000
   3.6680000  24.0060000   5.1650000   3.4980000  24.6820000   3.9410000
   2.6930000  24.0110000   6.1690000   4.9130000  23.2770000   5.3970000
   2.6970000  25.1700000   3.7890000   4.4710000  24.6550000   2.9510000
   1.8790000  24.4830000   6.0380000   2.8630000  23.3310000   7.3820000
   5.8970000  23.2720000   4.3780000   5.0830000  22.5960000   6.6100000
   5.7010000  23.9310000   3.1770000   4.2990000  25.3150000   1.6970000
   1.8790000  23.3360000   8.4010000   4.1070000  22.6020000   7.6140000
   6.7110000  22.8040000   4.5230000   5.8970000  22.1240000   6.7410000
   6.6860000  23.9140000   2.1400000   3.4960000  25.7960000   1.5310000
   5.2560000  25.2720000   0.7390000   2.0750000  22.6760000   9.6010000
   1.0650000  23.8030000   8.2560000   4.2780000  21.9250000   8.8380000
   6.4740000  24.5580000   0.9680000   7.5000000  23.4450000   2.2760000
   5.1180000  25.7170000  -0.0890000   1.0900000  22.6930000  10.6390000
   3.3050000  21.9520000   9.8280000   5.0790000  21.4370000   8.9900000
   7.1410000  24.5340000   0.2920000   1.3020000  22.0500000  11.8110000
   0.2760000  23.1620000  10.5020000   3.4770000  21.2920000  11.0820000
   2.5190000  21.3350000  12.0400000   0.6350000  22.0730000  12.4870000
   4.2800000  20.8110000  11.2470000   2.6580000  20.8900000  12.8680000
   5.3450000  33.5570000  21.6710000   5.5150000  32.8800000  22.8950000
   6.3210000  33.5520000  20.6670000   4.1010000  34.2860000  21.4390000
   6.3160000  32.3930000  23.0470000   4.5430000  32.9080000  23.8850000
   7.1340000  33.0790000  20.7980000   6.1500000  34.2320000  19.4540000
   3.1160000  34.2910000  22.4580000   3.9300000  34.9660000  20.2260000
   3.3120000  33.6320000  23.6580000   4.7140000  32.2480000  25.1380000
   7.1340000  34.2270000  18.4350000   4.9060000  34.9610000  19.2220000
   2.3020000  34.7590000  22.3130000   3.1160000  35.4390000  20.0950000
   2.3280000  33.6490000  24.6960000   5.5170000  31.7670000  25.3040000
   3.7570000  32.2910000  26.0970000   6.9390000  34.8860000  17.2340000
   7.9490000  33.7590000  18.5800000   4.7350000  35.6380000  17.9980000
   2.5390000  33.0050000  25.8680000   1.5130000  34.1180000  24.5590000
   3.8950000  31.8460000  26.9250000   7.9230000  34.8690000  16.1970000
   5.7080000  35.6110000  17.0080000   3.9340000  36.1250000  17.8460000
   1.8720000  33.0280000  26.5440000   7.7120000  35.5130000  15.0250000
   8.7380000  34.4010000  16.3330000   5.5360000  36.2710000  15.7540000
   6.4940000  36.2270000  14.7950000   8.3780000  35.4900000  14.3480000
   4.7340000  36.7520000  15.5880000   6.3550000  36.6730000  13.9670000
   4.8430000  30.2800000   7.6140000   5.0140000  29.6030000   8.8380000
   5.8190000  30.2750000   6.6100000   3.5990000  31.0090000   7.3820000
   5.8150000  29.1160000   8.9900000   4.0410000  29.6310000   9.8280000
   6.6330000  29.8030000   6.7410000   5.6490000  30.9550000   5.3970000
   2.6150000  31.0140000   8.4010000   3.4290000  31.6890000   6.1690000
   2.8110000  30.3550000   9.6010000   4.2130000  28.9710000  11.0820000
   6.6330000  30.9500000   4.3780000   4.4050000  31.6840000   5.1650000
   1.8010000  31.4820000   8.2560000   2.6150000  32.1620000   6.0380000
   1.8260000  30.3720000  10.6390000   5.0160000  28.4900000  11.2470000
   3.2550000  29.0140000  12.0400000   6.4370000  31.6100000   3.1770000
   7.4470000  30.4830000   4.5230000   4.2340000  32.3610000   3.9410000
   2.0380000  29.7280000  11.8110000   1.0120000  30.8410000  10.5020000
   3.3940000  28.5690000  12.8680000   7.4220000  31.5930000   2.1400000
   5.2070000  32.3340000   2.9510000   3.4330000  32.8490000   3.7890000
   1.3710000  29.7520000  12.4870000   7.2100000  32.2360000   0.9680000
   8.2360000  31.1240000   2.2760000   5.0350000  32.9940000   1.6970000
   5.9930000  32.9510000   0.7390000   7.8770000  32.2130000   0.2920000
   4.2320000  33.4750000   1.5310000   5.8540000  33.3960000  -0.0890000
   7.4120000  51.3450000  89.5060000   7.2420000  52.0220000  88.2820000
   6.4360000  51.3500000  90.5100000   8.6560000  50.6160000  89.7380000
   6.4410000  52.5100000  88.1300000   8.2140000  51.9950000  87.2920000
   5.6230000  51.8230000  90.3790000   6.6070000  50.6700000  91.7230000
   9.6410000  50.6110000  88.7190000   8.8270000  49.9360000  90.9510000
   9.4450000  51.2710000  87.5180000   8.0420000  52.6550000  86.0380000
   5.6230000  50.6750000  92.7420000   7.8510000  49.9410000  91.9550000
  10.4550000  50.1440000  88.8640000   9.6400000  49.4640000  91.0820000
  10.4290000  51.2540000  86.4810000   7.2400000  53.1360000  85.8720000
   9.0000000  52.6120000  85.0800000   5.8180000  50.0160000  93.9420000
   4.8080000  51.1430000  92.5970000   8.0210000  49.2640000  93.1790000
  10.2180000  51.8970000  85.3090000  11.2440000  50.7850000  86.6170000
   8.8620000  53.0570000  84.2520000   4.8340000  50.0330000  94.9800000
   7.0490000  49.2920000  94.1690000   8.8230000  48.7770000  93.3310000
  10.8850000  51.8740000  84.6320000   5.0450000  49.3890000  96.1520000
   4.0190000  50.5020000  94.8430000   7.2210000  48.6320000  95.4230000
   6.2630000  48.6750000  96.3810000   4.3790000  49.4130000  96.8280000
   8.0230000  48.1510000  95.5880000   6.4010000  48.2300000  97.2090000
   6.0810000  41.2360000  21.6710000   6.2510000  40.5590000  22.8950000
   7.0570000  41.2300000  20.6670000   4.8370000  41.9650000  21.4390000
   7.0530000  40.0710000  23.0470000   5.2790000  40.5860000  23.8850000
   7.8700000  40.7580000  20.7980000   6.8860000  41.9110000  19.4540000
   3.8520000  41.9700000  22.4580000   4.6660000  42.6450000  20.2260000
   4.0480000  41.3100000  23.6580000   5.4510000  39.9260000  25.1380000
   7.8700000  41.9060000  18.4350000   5.6420000  42.6400000  19.2220000
   3.0380000  42.4370000  22.3130000   3.8530000  43.1170000  20.0950000
   3.0640000  41.3270000  24.6960000   6.2530000  39.4450000  25.3040000
   4.4930000  39.9690000  26.0970000   7.6750000  42.5650000  17.2340000
   8.6850000  41.4380000  18.5800000   5.4720000  43.3160000  17.9980000
   3.2750000  40.6840000  25.8680000   2.2490000  41.7960000  24.5590000
   4.6310000  39.5240000  26.9250000   8.6590000  42.5480000  16.1970000
   6.4440000  43.2890000  17.0080000   4.6700000  43.8040000  17.8460000
   2.6090000  40.7070000  26.5440000   8.4480000  43.1920000  15.0250000
   9.4740000  42.0790000  16.3330000   6.2720000  43.9490000  15.7540000
   7.2300000  43.9060000  14.7950000   9.1140000  43.1680000  14.3480000
   5.4700000  44.4300000  15.5880000   7.0920000  44.3510000  13.9670000
   5.1410000  39.3630000   5.1650000   4.9700000  40.0400000   3.9410000
   4.1650000  39.3680000   6.1690000   6.3850000  38.6340000   5.3970000
   4.1690000  40.5270000   3.7890000   5.9430000  40.0120000   2.9510000
   3.3510000  39.8410000   6.0380000   4.3360000  38.6880000   7.3820000
   7.3690000  38.6290000   4.3780000   6.5550000  37.9540000   6.6100000
   7.1740000  39.2880000   3.1770000   5.7710000  40.6720000   1.6970000
   3.3510000  38.6930000   8.4010000   5.5800000  37.9590000   7.6140000
   8.1830000  38.1610000   4.5230000   7.3690000  37.4810000   6.7410000
   8.1580000  39.2710000   2.1400000   4.9680000  41.1530000   1.5310000
   6.7290000  40.6290000   0.7390000   3.5470000  38.0340000   9.6010000
   2.5370000  39.1610000   8.2560000   5.7500000  37.2820000   8.8380000
   7.9470000  39.9150000   0.9680000   8.9720000  38.8020000   2.2760000
   6.5900000  41.0740000  -0.0890000   2.5630000  38.0500000  10.6390000
   4.7770000  37.3090000   9.8280000   6.5510000  36.7950000   8.9900000
   8.6130000  39.8920000   0.2920000   2.7740000  37.4070000  11.8110000
   1.7480000  38.5190000  10.5020000   4.9490000  36.6490000  11.0820000
   3.9920000  36.6920000  12.0400000   2.1070000  37.4300000  12.4870000
   5.7520000  36.1680000  11.2470000   4.1300000  36.2470000  12.8680000
   8.1480000  59.0240000  89.5060000   7.9780000  59.7010000  88.2820000
   7.1730000  59.0290000  90.5100000   9.3920000  58.2950000  89.7380000
   7.1770000  60.1880000  88.1300000   8.9500000  59.6730000  87.2920000
   6.3590000  59.5020000  90.3790000   7.3430000  58.3490000  91.7230000
  10.3770000  58.2900000  88.7190000   9.5630000  57.6150000  90.9510000
  10.1810000  58.9490000  87.5180000   8.7790000  60.3330000  86.0380000
   6.3590000  58.3540000  92.7420000   8.5870000  57.6200000  91.9550000
  11.1910000  57.8220000  88.8640000  10.3770000  57.1420000  91.0820000
  11.1650000  58.9320000  86.4810000   7.9760000  60.8140000  85.8720000
   9.7360000  60.2900000  85.0800000   6.5540000  57.6950000  93.9420000
   5.5440000  58.8220000  92.5970000   8.7580000  56.9430000  93.1790000
  10.9540000  59.5760000  85.3090000  11.9800000  58.4630000  86.6170000
   9.5980000  60.7350000  84.2520000   5.5700000  57.7110000  94.9800000
   7.7850000  56.9700000  94.1690000   9.5590000  56.4560000  93.3310000
  11.6210000  59.5530000  84.6320000   5.7810000  57.0680000  96.1520000
   4.7550000  58.1800000  94.8430000   7.9570000  56.3100000  95.4230000
   6.9990000  56.3530000  96.3810000   5.1150000  57.0910000  96.8280000
   8.7590000  55.8290000  95.5880000   7.1380000  55.9080000  97.2090000
   7.3180000  52.1910000  35.7270000   7.4890000  51.5140000  36.9520000
   8.2940000  52.1860000  34.7240000   6.0740000  52.9200000  35.4960000
   8.2900000  51.0270000  37.1040000   6.5160000  51.5420000  37.9410000
   9.1080000  51.7130000  34.8550000   8.1230000  52.8660000  33.5110000
   5.0900000  52.9250000  36.5150000   5.9040000  53.6000000  34.2820000
   5.2850000  52.2660000  37.7150000   6.6880000  50.8820000  39.1950000
   9.1080000  52.8610000  32.4920000   6.8790000  53.5950000  33.2790000
   4.2750000  53.3930000  36.3700000   5.0900000  54.0730000  34.1520000
   4.3010000  52.2830000  38.7520000   7.4910000  50.4010000  39.3610000
   5.7300000  50.9250000  40.1540000   8.9120000  53.5200000  31.2910000
   9.9220000  52.3930000  32.6360000   6.7090000  54.2720000  32.0540000
   4.5120000  51.6390000  39.9250000   3.4860000  52.7520000  38.6160000
   5.8690000  50.4800000  40.9820000   9.8960000  53.5040000  30.2540000
   7.6810000  54.2450000  31.0650000   5.9080000  54.7590000  31.9030000
   3.8460000  51.6620000  40.6010000   9.6850000  54.1470000  29.0810000
  10.7110000  53.0350000  30.3900000   7.5100000  54.9050000  29.8110000
   8.4670000  54.8620000  28.8520000  10.3520000  54.1240000  28.4050000
   6.7070000  55.3860000  29.6450000   8.3290000  55.3070000  28.0240000
   5.8770000  47.0420000   5.1650000   5.7060000  47.7180000   3.9410000
   4.9010000  47.0470000   6.1690000   7.1210000  46.3120000   5.3970000
   4.9050000  48.2060000   3.7890000   6.6790000  47.6910000   2.9510000
   4.0870000  47.5190000   6.0380000   5.0720000  46.3670000   7.3820000
   8.1050000  46.3070000   4.3780000   7.2910000  45.6320000   6.6100000
   7.9100000  46.9670000   3.1770000   6.5070000  48.3510000   1.6970000
   4.0870000  46.3710000   8.4010000   6.3160000  45.6370000   7.6140000
   8.9200000  45.8400000   4.5230000   8.1050000  45.1600000   6.7410000
   8.8940000  46.9500000   2.1400000   5.7050000  48.8320000   1.5310000
   7.4650000  48.3080000   0.7390000   4.2830000  45.7120000   9.6010000
   3.2730000  46.8390000   8.2560000   6.4860000  44.9610000   8.8380000
   8.6830000  47.5930000   0.9680000   9.7090000  46.4810000   2.2760000
   7.3260000  48.7530000  -0.0890000   3.2990000  45.7290000  10.6390000
   5.5140000  44.9880000   9.8280000   7.2870000  44.4730000   8.9900000
   9.3490000  47.5700000   0.2920000   3.5100000  45.0860000  11.8110000
   2.4840000  46.1980000  10.5020000   5.6850000  44.3280000  11.0820000
   4.7280000  44.3710000  12.0400000   2.8430000  45.1090000  12.4870000
   6.4880000  43.8470000  11.2470000   4.8660000  43.9260000  12.8680000
   6.3780000  50.3180000  19.2220000   6.2080000  50.9950000  17.9980000
   5.4020000  50.3230000  20.2260000   7.6220000  49.5890000  19.4540000
   5.4060000  51.4830000  17.8460000   7.1800000  50.9680000  17.0080000
   4.5890000  50.7960000  20.0950000   5.5730000  49.6430000  21.4390000
   8.6070000  49.5840000  18.4350000   7.7930000  48.9090000  20.6670000
   8.4110000  50.2440000  17.2340000   7.0080000  51.6280000  15.7540000
   4.5890000  49.6480000  22.4580000   6.8170000  48.9140000  21.6710000
   9.4210000  49.1170000  18.5800000   8.6060000  48.4370000  20.7980000
   9.3950000  50.2270000  16.1970000   6.2060000  52.1090000  15.5880000
   7.9660000  51.5850000  14.7950000   4.7840000  48.9890000  23.6580000
   3.7740000  50.1160000  22.3130000   6.9870000  48.2380000  22.8950000
   9.1840000  50.8700000  15.0250000  10.2100000  49.7580000  16.3330000
   7.8280000  52.0300000  13.9670000   3.8000000  49.0060000  24.6960000
   6.0150000  48.2650000  23.8850000   7.7890000  47.7500000  23.0470000
   9.8500000  50.8470000  14.3480000   4.0110000  48.3620000  25.8680000
   2.9850000  49.4750000  24.5590000   6.1870000  47.6050000  25.1380000
   5.2290000  47.6480000  26.0970000   3.3450000  48.3860000  26.5440000
   6.9890000  47.1240000  25.3040000   5.3670000  47.2030000  26.9250000
   7.3810000  56.8720000  47.3360000   7.2100000  57.5490000  46.1110000
   6.4050000  56.8770000  48.3390000   8.6250000  56.1430000  47.5670000
   6.4090000  58.0360000  45.9590000   8.1830000  57.5220000  45.1220000
   5.5910000  57.3500000  48.2080000   6.5750000  56.1970000  49.5520000
   9.6090000  56.1380000  46.5480000   8.7950000  55.4630000  48.7810000
   9.4130000  56.7970000  45.3480000   8.0110000  58.1810000  43.8680000
   5.5910000  56.2020000  50.5710000   7.8200000  55.4680000  49.7840000
  10.4230000  55.6700000  46.6930000   9.6090000  54.9900000  48.9110000
  10.3980000  56.7800000  44.3110000   7.2080000  58.6630000  43.7020000
   8.9690000  58.1380000  42.9090000   5.7870000  55.5430000  51.7720000
   4.7770000  56.6700000  50.4270000   7.9900000  54.7910000  51.0090000
  10.1860000  57.4240000  43.1380000  11.2120000  56.3110000  44.4470000
   8.8300000  58.5830000  42.0810000   4.8020000  55.5600000  52.8090000
   7.0170000  54.8180000  51.9980000   8.7910000  54.3040000  51.1600000
  10.8530000  57.4010000  42.4620000   5.0140000  54.9160000  53.9820000
   3.9880000  56.0280000  52.6730000   7.1890000  54.1590000  53.2520000
   6.2320000  54.2020000  54.2110000   4.3470000  54.9390000  54.6580000
   7.9920000  53.6770000  53.4180000   6.3700000  53.7560000  55.0390000
   8.3830000  63.4260000  75.4490000   8.2130000  64.1020000  74.2250000
   7.4070000  63.4310000  76.4530000   9.6270000  62.6970000  75.6810000
   7.4110000  64.5900000  74.0730000   9.1850000  64.0750000  73.2350000
   6.5940000  63.9030000  76.3220000   7.5780000  62.7510000  77.6660000
  10.6120000  62.6920000  74.6620000   9.7980000  62.0160000  76.8940000
  10.4160000  63.3510000  73.4620000   9.0130000  64.7350000  71.9810000
   6.5940000  62.7560000  78.6850000   8.8220000  62.0220000  77.8980000
  11.4260000  62.2240000  74.8070000  10.6110000  61.5440000  77.0250000
  11.4000000  63.3340000  72.4240000   8.2110000  65.2160000  71.8150000
   9.9710000  64.6920000  71.0230000   6.7890000  62.0960000  79.8860000
   5.7790000  63.2230000  78.5400000   8.9920000  61.3450000  79.1220000
  11.1890000  63.9780000  71.2520000  12.2150000  62.8650000  72.5610000
   9.8330000  65.1370000  70.1950000   5.8050000  62.1130000  80.9230000
   8.0200000  61.3720000  80.1120000   9.7940000  60.8570000  79.2740000
  11.8550000  63.9540000  70.5760000   6.0160000  61.4700000  82.0950000
   4.9900000  62.5820000  80.7870000   8.1920000  60.7120000  81.3660000
   7.2340000  60.7550000  82.3240000   5.3500000  61.4930000  82.7710000
   8.9940000  60.2310000  81.5320000   7.3720000  60.3100000  83.1520000
   8.8840000  66.7030000  89.5060000   8.7140000  67.3790000  88.2820000
   7.9090000  66.7080000  90.5100000  10.1280000  65.9730000  89.7380000
   7.9130000  67.8670000  88.1300000   9.6870000  67.3520000  87.2920000
   7.0950000  67.1800000  90.3790000   8.0790000  66.0280000  91.7230000
  11.1130000  65.9680000  88.7190000  10.2990000  65.2930000  90.9510000
  10.9170000  66.6280000  87.5180000   9.5150000  68.0120000  86.0380000
   7.0950000  66.0320000  92.7420000   9.3230000  65.2980000  91.9550000
  11.9270000  65.5010000  88.8640000  11.1130000  64.8210000  91.0820000
  11.9010000  66.6110000  86.4810000   8.7120000  68.4930000  85.8720000
  10.4720000  67.9690000  85.0800000   7.2900000  65.3730000  93.9420000
   6.2810000  66.5000000  92.5970000   9.4940000  64.6220000  93.1790000
  11.6900000  67.2540000  85.3090000  12.7160000  66.1420000  86.6170000
  10.3340000  68.4140000  84.2520000   6.3060000  65.3900000  94.9800000
   8.5210000  64.6490000  94.1690000  10.2950000  64.1340000  93.3310000
  12.3570000  67.2310000  84.6320000   6.5170000  64.7470000  96.1520000
   5.4920000  65.8590000  94.8430000   8.6930000  63.9890000  95.4230000
   7.7350000  64.0320000  96.3810000   5.8510000  64.7700000  96.8280000
   9.4960000  63.5080000  95.5880000   7.8740000  63.5870000  97.2090000
   7.5530000  56.5930000  21.6710000   7.7240000  55.9160000  22.8950000
   8.5290000  56.5880000  20.6670000   6.3090000  57.3220000  21.4390000
   8.5250000  55.4290000  23.0470000   6.7510000  55.9430000  23.8850000
   9.3430000  56.1150000  20.7980000   8.3580000  57.2680000  19.4540000
   5.3250000  57.3270000  22.4580000   6.1380000  58.0020000  20.2260000
   5.5200000  56.6680000  23.6580000   6.9230000  55.2830000  25.1380000
   9.3430000  57.2630000  18.4350000   7.1140000  57.9970000  19.2220000
   4.5100000  57.7950000  22.3130000   5.3250000  58.4750000  20.0950000
   4.5360000  56.6840000  24.6960000   7.7250000  54.8020000  25.3040000
   5.9650000  55.3260000  26.0970000   9.1470000  57.9220000  17.2340000
  10.1570000  56.7950000  18.5800000   6.9440000  58.6740000  17.9980000
   4.7470000  56.0410000  25.8680000   3.7210000  57.1530000  24.5590000
   6.1040000  54.8810000  26.9250000  10.1310000  57.9050000  16.1970000
   7.9160000  58.6460000  17.0080000   6.1430000  59.1610000  17.8460000
   4.0810000  56.0640000  26.5440000   9.9200000  58.5490000  15.0250000
  10.9460000  57.4360000  16.3330000   7.7450000  59.3060000  15.7540000
   8.7020000  59.2630000  14.7950000  10.5870000  58.5260000  14.3480000
   6.9420000  59.7870000  15.5880000   8.5640000  59.7080000  13.9670000
   8.0540000  59.8700000  35.7270000   8.2250000  59.1930000  36.9520000
   9.0300000  59.8650000  34.7240000   6.8100000  60.5990000  35.4960000
   9.0260000  58.7050000  37.1040000   7.2520000  59.2200000  37.9410000
   9.8440000  59.3920000  34.8550000   8.8600000  60.5450000  33.5110000
   5.8260000  60.6040000  36.5150000   6.6400000  61.2790000  34.2820000
   6.0220000  59.9440000  37.7150000   7.4240000  58.5600000  39.1950000
   9.8440000  60.5400000  32.4920000   7.6150000  61.2740000  33.2790000
   5.0120000  61.0710000  36.3700000   5.8260000  61.7510000  34.1520000
   5.0370000  59.9610000  38.7520000   8.2270000  58.0790000  39.3610000
   6.4660000  58.6030000  40.1540000   9.6480000  61.1990000  31.2910000
  10.6580000  60.0720000  32.6360000   7.4450000  61.9500000  32.0540000
   5.2490000  59.3180000  39.9250000   4.2230000  60.4300000  38.6160000
   6.6050000  58.1580000  40.9820000  10.6330000  61.1820000  30.2540000
   8.4180000  61.9230000  31.0650000   6.6440000  62.4380000  31.9030000
   4.5820000  59.3410000  40.6010000  10.4210000  61.8260000  29.0810000
  11.4470000  60.7130000  30.3900000   8.2460000  62.5830000  29.8110000
   9.2030000  62.5400000  28.8520000  11.0880000  61.8020000  28.4050000
   7.4430000  63.0640000  29.6450000   9.0650000  62.9850000  28.0240000
   8.1170000  64.5510000  47.3360000   7.9460000  65.2270000  46.1110000
   7.1410000  64.5560000  48.3390000   9.3610000  63.8210000  47.5670000
   7.1450000  65.7150000  45.9590000   8.9190000  65.2000000  45.1220000
   6.3270000  65.0280000  48.2080000   7.3120000  63.8760000  49.5520000
  10.3450000  63.8170000  46.5480000   9.5310000  63.1410000  48.7810000
  10.1500000  64.4760000  45.3480000   8.7470000  65.8600000  43.8680000
   6.3270000  63.8810000  50.5710000   8.5560000  63.1460000  49.7840000
  11.1590000  63.3490000  46.6930000  10.3450000  62.6690000  48.9110000
  11.1340000  64.4590000  44.3110000   7.9440000  66.3410000  43.7020000
   9.7050000  65.8170000  42.9090000   6.5230000  63.2210000  51.7720000
   5.5130000  64.3480000  50.4270000   8.7260000  62.4700000  51.0090000
  10.9230000  65.1020000  43.1380000  11.9480000  63.9900000  44.4470000
   9.5660000  66.2620000  42.0810000   5.5390000  63.2380000  52.8090000
   7.7530000  62.4970000  51.9980000   9.5270000  61.9820000  51.1600000
  11.5890000  65.0790000  42.4620000   5.7500000  62.5950000  53.9820000
   4.7240000  63.7070000  52.6730000   7.9250000  61.8370000  53.2520000
   6.9680000  61.8800000  54.2110000   5.0830000  62.6180000  54.6580000
   8.7280000  61.3560000  53.4180000   7.1060000  61.4350000  55.0390000
   6.6130000  54.7200000   5.1650000   6.4420000  55.3970000   3.9410000
   5.6370000  54.7250000   6.1690000   7.8570000  53.9910000   5.3970000
   5.6410000  55.8840000   3.7890000   7.4150000  55.3700000   2.9510000
   4.8240000  55.1980000   6.0380000   5.8080000  54.0450000   7.3820000
   8.8410000  53.9860000   4.3780000   8.0280000  53.3110000   6.6100000
   8.6460000  54.6450000   3.1770000   7.2430000  56.0290000   1.6970000
   4.8230000  54.0500000   8.4010000   7.0520000  53.3160000   7.6140000
   9.6560000  53.5180000   4.5230000   8.8410000  52.8380000   6.7410000
   9.6300000  54.6280000   2.1400000   6.4410000  56.5110000   1.5310000
   8.2010000  55.9860000   0.7390000   5.0190000  53.3910000   9.6010000
   4.0090000  54.5180000   8.2560000   7.2220000  52.6390000   8.8380000
   9.4190000  55.2720000   0.9680000  10.4450000  54.1600000   2.2760000
   8.0630000  56.4320000  -0.0890000   4.0350000  53.4080000  10.6390000
   6.2500000  52.6660000   9.8280000   8.0230000  52.1520000   8.9900000
  10.0850000  55.2490000   0.2920000   4.2460000  52.7640000  11.8110000
   3.2200000  53.8770000  10.5020000   6.4220000  52.0070000  11.0820000
   5.4640000  52.0500000  12.0400000   3.5790000  52.7870000  12.4870000
   7.2240000  51.5250000  11.2470000   5.6020000  51.6050000  12.8680000
   9.5580000  69.7000000  77.8980000   9.7290000  69.0230000  79.1220000
  10.5340000  69.6950000  76.8940000   8.3140000  70.4290000  77.6660000
  10.5300000  68.5360000  79.2740000   8.7560000  69.0510000  80.1120000
  11.3480000  69.2230000  77.0250000  10.3630000  70.3750000  75.6810000
   7.3300000  70.4340000  78.6850000   8.1430000  71.1090000  76.4530000
   7.5250000  69.7750000  79.8860000   8.9280000  68.3910000  81.3660000
  11.3480000  70.3700000  74.6620000   9.1190000  71.1040000  75.4490000
   6.5150000  70.9020000  78.5400000   7.3300000  71.5820000  76.3220000
   6.5410000  69.7920000  80.9230000   9.7300000  67.9100000  81.5320000
   7.9700000  68.4340000  82.3240000  11.1520000  71.0290000  73.4620000
  12.1620000  69.9030000  74.8070000   8.9490000  71.7810000  74.2250000
   6.7520000  69.1480000  82.0950000   5.7260000  70.2610000  80.7870000
   8.1090000  67.9890000  83.1520000  12.1360000  71.0130000  72.4240000
   9.9210000  71.7540000  73.2350000   8.1480000  72.2690000  74.0730000
   6.0860000  69.1720000  82.7710000  11.9250000  71.6560000  71.2520000
  12.9510000  70.5440000  72.5610000   9.7500000  72.4140000  71.9810000
  10.7070000  72.3710000  71.0230000  12.5920000  71.6330000  70.5760000
   8.9470000  72.8950000  71.8150000  10.5690000  72.8160000  70.1950000
   9.6200000  74.3810000  89.5060000   9.4500000  75.0580000  88.2820000
   8.6450000  74.3860000  90.5100000  10.8650000  73.6520000  89.7380000
   8.6490000  75.5450000  88.1300000  10.4230000  75.0310000  87.2920000
   7.8310000  74.8590000  90.3790000   8.8150000  73.7060000  91.7230000
  11.8490000  73.6470000  88.7190000  11.0350000  72.9720000  90.9510000
  11.6530000  74.3060000  87.5180000  10.2510000  75.6900000  86.0380000
   7.8310000  73.7110000  92.7420000  10.0590000  72.9770000  91.9550000
  12.6630000  73.1790000  88.8640000  11.8490000  72.4990000  91.0820000
  12.6380000  74.2890000  86.4810000   9.4480000  76.1720000  85.8720000
  11.2080000  75.6470000  85.0800000   8.0270000  73.0520000  93.9420000
   7.0170000  74.1790000  92.5970000  10.2300000  72.3000000  93.1790000
  12.4260000  74.9330000  85.3090000  13.4520000  73.8210000  86.6170000
  11.0700000  76.0930000  84.2520000   7.0420000  73.0690000  94.9800000
   9.2570000  72.3270000  94.1690000  11.0310000  71.8130000  93.3310000
  13.0930000  74.9100000  84.6320000   7.2540000  72.4250000  96.1520000
   6.2280000  73.5380000  94.8430000   9.4290000  71.6680000  95.4230000
   8.4710000  71.7110000  96.3810000   6.5870000  72.4480000  96.8280000
  10.2320000  71.1860000  95.5880000   8.6100000  71.2660000  97.2090000
   9.0570000  66.4230000  63.8410000   9.2270000  65.7470000  65.0650000
  10.0330000  66.4180000  62.8370000   7.8130000  67.1520000  63.6090000
  10.0290000  65.2590000  65.2170000   8.2550000  65.7740000  66.0550000
  10.8460000  65.9460000  62.9680000   9.8620000  67.0980000  61.6240000
   6.8280000  67.1570000  64.6280000   7.6420000  67.8330000  62.3960000
   7.0240000  66.4980000  65.8290000   8.4270000  65.1140000  67.3090000
  10.8460000  67.0930000  60.6050000   8.6180000  67.8270000  61.3920000
   6.0140000  67.6250000  64.4830000   6.8290000  68.3050000  62.2650000
   6.0400000  66.5150000  66.8660000   9.2290000  64.6330000  67.4750000
   7.4690000  65.1570000  68.2680000  10.6510000  67.7530000  59.4050000
  11.6610000  66.6260000  60.7500000   8.4480000  68.5040000  60.1680000
   6.2510000  65.8710000  68.0380000   5.2250000  66.9840000  66.7300000
   7.6070000  64.7120000  69.0960000  11.6350000  67.7360000  58.3670000
   9.4200000  68.4770000  59.1780000   7.6460000  68.9920000  60.0160000
   5.5850000  65.8950000  68.7150000  11.4240000  68.3790000  57.1950000
  12.4500000  67.2670000  58.5040000   9.2480000  69.1370000  57.9250000
  10.2060000  69.0940000  56.9660000  12.0900000  68.3560000  56.5190000
   8.4460000  69.6180000  57.7590000  10.0680000  69.5390000  56.1380000
   7.3490000  62.3990000   5.1650000   7.1790000  63.0750000   3.9410000
   6.3730000  62.4040000   6.1690000   8.5930000  61.6700000   5.3970000
   6.3770000  63.5630000   3.7890000   8.1510000  63.0480000   2.9510000
   5.5600000  62.8760000   6.0380000   6.5440000  61.7240000   7.3820000
   9.5780000  61.6650000   4.3780000   8.7640000  60.9890000   6.6100000
   9.3820000  62.3240000   3.1770000   7.9790000  63.7080000   1.6970000
   5.5600000  61.7290000   8.4010000   7.7880000  60.9950000   7.6140000
  10.3920000  61.1970000   4.5230000   9.5770000  60.5170000   6.7410000
  10.3660000  62.3070000   2.1400000   7.1770000  64.1890000   1.5310000
   8.9370000  63.6650000   0.7390000   5.7550000  61.0690000   9.6010000
   4.7450000  62.1960000   8.2560000   7.9580000  60.3180000   8.8380000
  10.1550000  62.9510000   0.9680000  11.1810000  61.8380000   2.2760000
   8.7990000  64.1100000  -0.0890000   4.7710000  61.0860000  10.6390000
   6.9860000  60.3450000   9.8280000   8.7600000  59.8300000   8.9900000
  10.8210000  62.9270000   0.2920000   4.9820000  60.4430000  11.8110000
   3.9560000  61.5550000  10.5020000   7.1580000  59.6850000  11.0820000
   6.2000000  59.7280000  12.0400000   4.3160000  60.4660000  12.4870000
   7.9600000  59.2040000  11.2470000   6.3380000  59.2830000  12.8680000
   9.3540000  75.5060000  61.3920000   9.1840000  76.1830000  60.1680000
   8.3780000  75.5110000  62.3960000  10.5980000  74.7770000  61.6240000
   8.3820000  76.6700000  60.0160000  10.1560000  76.1560000  59.1780000
   7.5650000  75.9840000  62.2650000   8.5490000  74.8310000  63.6090000
  11.5830000  74.7720000  60.6050000  10.7690000  74.0970000  62.8370000
  11.3870000  75.4310000  59.4050000   9.9840000  76.8150000  57.9250000
   7.5650000  74.8360000  64.6280000   9.7930000  74.1020000  63.8410000
  12.3970000  74.3040000  60.7500000  11.5820000  73.6240000  62.9680000
  12.3710000  75.4140000  58.3670000   9.1820000  77.2970000  57.7590000
  10.9420000  76.7720000  56.9660000   7.7600000  74.1770000  65.8290000
   6.7500000  75.3040000  64.4830000   9.9630000  73.4250000  65.0650000
  12.1600000  76.0580000  57.1950000  13.1860000  74.9460000  58.5040000
  10.8040000  77.2170000  56.1380000   6.7760000  74.1940000  66.8660000
   8.9910000  73.4520000  66.0550000  10.7650000  72.9380000  65.2170000
  12.8260000  76.0350000  56.5190000   6.9870000  73.5500000  68.0380000
   5.9610000  74.6620000  66.7300000   9.1630000  72.7930000  67.3090000
   8.2050000  72.8360000  68.2680000   6.3210000  73.5730000  68.7150000
   9.9650000  72.3110000  67.4750000   8.3430000  72.3910000  69.0960000
   8.3520000  68.9520000  33.2790000   8.1810000  69.6290000  32.0540000
   7.3760000  68.9580000  34.2820000   9.5960000  68.2230000  33.5110000
   7.3800000  70.1170000  31.9030000   9.1540000  69.6020000  31.0650000
   6.5620000  69.4300000  34.1520000   7.5460000  68.2770000  35.4960000
  10.5800000  68.2180000  32.4920000   9.7660000  67.5430000  34.7240000
  10.3840000  68.8780000  31.2910000   8.9820000  70.2620000  29.8110000
   6.5620000  68.2820000  36.5150000   8.7900000  67.5480000  35.7270000
  11.3940000  67.7510000  32.6360000  10.5800000  67.0710000  34.8550000
  11.3690000  68.8610000  30.2540000   8.1790000  70.7430000  29.6450000
   9.9400000  70.2190000  28.8520000   6.7580000  67.6230000  37.7150000
   5.7480000  68.7500000  36.3700000   8.9610000  66.8720000  36.9520000
  11.1570000  69.5040000  29.0810000  12.1830000  68.3920000  30.3900000
   9.8010000  70.6640000  28.0240000   5.7730000  67.6400000  38.7520000
   7.9880000  66.8990000  37.9410000   9.7620000  66.3840000  37.1040000
  11.8240000  69.4810000  28.4050000   5.9850000  66.9960000  39.9250000
   4.9590000  68.1090000  38.6160000   8.1600000  66.2390000  39.1950000
   7.2020000  66.2820000  40.1540000   5.3180000  67.0200000  40.6010000
   8.9630000  65.7580000  39.3610000   7.3410000  65.8370000  40.9820000
   8.8530000  72.2290000  47.3360000   8.6820000  72.9060000  46.1110000
   7.8770000  72.2340000  48.3390000  10.0970000  71.5000000  47.5670000
   7.8810000  73.3930000  45.9590000   9.6550000  72.8790000  45.1220000
   7.0630000  72.7070000  48.2080000   8.0480000  71.5540000  49.5520000
  11.0810000  71.4950000  46.5480000  10.2680000  70.8200000  48.7810000
  10.8860000  72.1540000  45.3480000   9.4830000  73.5390000  43.8680000
   7.0630000  71.5590000  50.5710000   9.2920000  70.8250000  49.7840000
  11.8960000  71.0270000  46.6930000  11.0810000  70.3470000  48.9110000
  11.8700000  72.1380000  44.3110000   8.6810000  74.0200000  43.7020000
  10.4410000  73.4960000  42.9090000   7.2590000  70.9000000  51.7720000
   6.2490000  72.0270000  50.4270000   9.4620000  70.1480000  51.0090000
  11.6590000  72.7810000  43.1380000  12.6850000  71.6690000  44.4470000
  10.3020000  73.9410000  42.0810000   6.2750000  70.9170000  52.8090000
   8.4900000  70.1760000  51.9980000  10.2630000  69.6610000  51.1600000
  12.3250000  72.7580000  42.4620000   6.4860000  70.2730000  53.9820000
   5.4600000  71.3860000  52.6730000   8.6610000  69.5160000  53.2520000
   7.7040000  69.5590000  54.2110000   5.8190000  70.2960000  54.6580000
   9.4640000  69.0350000  53.4180000   7.8420000  69.1140000  55.0390000
   7.8500000  65.6760000  19.2220000   7.6800000  66.3520000  17.9980000
   6.8750000  65.6810000  20.2260000   9.0940000  64.9460000  19.4540000
   6.8790000  66.8400000  17.8460000   8.6520000  66.3250000  17.0080000
   6.0610000  66.1530000  20.0950000   7.0450000  65.0010000  21.4390000
  10.0790000  64.9410000  18.4350000   9.2650000  64.2660000  20.6670000
   9.8830000  65.6010000  17.2340000   8.4810000  66.9850000  15.7540000
   6.0610000  65.0050000  22.4580000   8.2890000  64.2710000  21.6710000
  10.8930000  64.4740000  18.5800000  10.0790000  63.7940000  20.7980000
  10.8670000  65.5840000  16.1970000   7.6780000  67.4660000  15.5880000
   9.4380000  66.9420000  14.7950000   6.2560000  64.3460000  23.6580000
   5.2460000  65.4730000  22.3130000   8.4600000  63.5950000  22.8950000
  10.6560000  66.2270000  15.0250000  11.6820000  65.1150000  16.3330000
   9.3000000  67.3870000  13.9670000   5.2720000  64.3630000  24.6960000
   7.4870000  63.6220000  23.8850000   9.2610000  63.1070000  23.0470000
  11.3230000  66.2040000  14.3480000   5.4830000  63.7200000  25.8680000
   4.4570000  64.8320000  24.5590000   7.6590000  62.9620000  25.1380000
   6.7010000  63.0050000  26.0970000   4.8170000  63.7430000  26.5440000
   8.4620000  62.4810000  25.3040000   6.8400000  62.5600000  26.9250000
   9.8550000  78.7830000  75.4490000   9.6850000  79.4600000  74.2250000
   8.8800000  78.7880000  76.4530000  11.0990000  78.0540000  75.6810000
   8.8840000  79.9470000  74.0730000  10.6580000  79.4320000  73.2350000
   8.0660000  79.2600000  76.3220000   9.0500000  78.1080000  77.6660000
  12.0840000  78.0490000  74.6620000  11.2700000  77.3740000  76.8940000
  11.8880000  78.7080000  73.4620000  10.4860000  80.0920000  71.9810000
   8.0660000  78.1130000  78.6850000  10.2940000  77.3790000  77.8980000
  12.8980000  77.5810000  74.8070000  12.0840000  76.9010000  77.0250000
  12.8720000  78.6910000  72.4240000   9.6830000  80.5730000  71.8150000
  11.4430000  80.0490000  71.0230000   8.2610000  77.4540000  79.8860000
   7.2520000  78.5800000  78.5400000  10.4650000  76.7020000  79.1220000
  12.6610000  79.3350000  71.2520000  13.6870000  78.2220000  72.5610000
  11.3050000  80.4940000  70.1950000   7.2770000  77.4700000  80.9230000
   9.4920000  76.7290000  80.1120000  11.2660000  76.2150000  79.2740000
  13.3280000  79.3120000  70.5760000   7.4880000  76.8270000  82.0950000
   6.4630000  77.9390000  80.7870000   9.6640000  76.0690000  81.3660000
   8.7060000  76.1120000  82.3240000   6.8220000  76.8500000  82.7710000
  10.4670000  75.5880000  81.5320000   8.8450000  75.6670000  83.1520000
   8.5240000  68.6730000   7.6140000   8.6950000  67.9960000   8.8380000
   9.5000000  68.6680000   6.6100000   7.2800000  69.4020000   7.3820000
   9.4960000  67.5090000   8.9900000   7.7220000  68.0240000   9.8280000
  10.3140000  68.1960000   6.7410000   9.3290000  69.3480000   5.3970000
   6.2960000  69.4070000   8.4010000   7.1090000  70.0820000   6.1690000
   6.4910000  68.7480000   9.6010000   7.8940000  67.3640000  11.0820000
  10.3140000  69.3430000   4.3780000   8.0850000  70.0770000   5.1650000
   5.4810000  69.8750000   8.2560000   6.2960000  70.5550000   6.0380000
   5.5070000  68.7650000  10.6390000   8.6960000  66.8830000  11.2470000
   6.9360000  67.4070000  12.0400000  10.1180000  70.0020000   3.1770000
  11.1280000  68.8760000   4.5230000   7.9150000  70.7540000   3.9410000
   5.7180000  68.1210000  11.8110000   4.6920000  69.2340000  10.5020000
   7.0750000  66.9620000  12.8680000  11.1020000  69.9860000   2.1400000
   8.8870000  70.7270000   2.9510000   7.1140000  71.2420000   3.7890000
   5.0520000  68.1450000  12.4870000  10.8910000  70.6290000   0.9680000
  11.9170000  69.5170000   2.2760000   8.7160000  71.3870000   1.6970000
   9.6730000  71.3440000   0.7390000  11.5580000  70.6060000   0.2920000
   7.9130000  71.8680000   1.5310000   9.5350000  71.7890000  -0.0890000
   8.5860000  73.3540000  19.2220000   8.4160000  74.0310000  17.9980000
   7.6110000  73.3590000  20.2260000   9.8310000  72.6250000  19.4540000
   7.6150000  74.5180000  17.8460000   9.3890000  74.0040000  17.0080000
   6.7970000  73.8320000  20.0950000   7.7810000  72.6790000  21.4390000
  10.8150000  72.6200000  18.4350000  10.0010000  71.9450000  20.6670000
  10.6190000  73.2790000  17.2340000   9.2170000  74.6630000  15.7540000
   6.7970000  72.6840000  22.4580000   9.0250000  71.9500000  21.6710000
  11.6290000  72.1520000  18.5800000  10.8150000  71.4720000  20.7980000
  11.6030000  73.2620000  16.1970000   8.4140000  75.1450000  15.5880000
  10.1740000  74.6200000  14.7950000   6.9930000  72.0250000  23.6580000
   5.9830000  73.1520000  22.3130000   9.1960000  71.2730000  22.8950000
  11.3920000  73.9060000  15.0250000  12.4180000  72.7940000  16.3330000
  10.0360000  75.0660000  13.9670000   6.0080000  72.0420000  24.6960000
   8.2230000  71.3010000  23.8850000   9.9970000  70.7860000  23.0470000
  12.0590000  73.8830000  14.3480000   6.2190000  71.3980000  25.8680000
   5.1940000  72.5110000  24.5590000   8.3950000  70.6410000  25.1380000
   7.4370000  70.6840000  26.0970000   5.5530000  71.4210000  26.5440000
   9.1980000  70.1590000  25.3040000   7.5760000  70.2390000  26.9250000
   9.5270000  75.2270000  35.7270000   9.6970000  74.5500000  36.9520000
  10.5020000  75.2220000  34.7240000   8.2830000  75.9560000  35.4960000
  10.4980000  74.0630000  37.1040000   8.7240000  74.5770000  37.9410000
  11.3160000  74.7490000  34.8550000  10.3320000  75.9020000  33.5110000
   7.2980000  75.9610000  36.5150000   8.1120000  76.6360000  34.2820000
   7.4940000  75.3020000  37.7150000   8.8960000  73.9170000  39.1950000
  11.3160000  75.8970000  32.4920000   9.0880000  76.6310000  33.2790000
   6.4840000  76.4290000  36.3700000   7.2980000  77.1090000  34.1520000
   6.5100000  75.3190000  38.7520000   9.6990000  73.4360000  39.3610000
   7.9390000  73.9610000  40.1540000  11.1210000  76.5560000  31.2910000
  12.1300000  75.4290000  32.6360000   8.9170000  77.3080000  32.0540000
   6.7210000  74.6750000  39.9250000   5.6950000  75.7870000  38.6160000
   8.0770000  73.5150000  40.9820000  12.1050000  76.5390000  30.2540000
   9.8900000  77.2800000  31.0650000   8.1160000  77.7950000  31.9030000
   6.0540000  74.6980000  40.6010000  11.8940000  77.1830000  29.0810000
  12.9190000  76.0700000  30.3900000   9.7180000  77.9400000  29.8110000
  10.6760000  77.8970000  28.8520000  12.5600000  77.1600000  28.4050000
   8.9150000  78.4210000  29.6450000  10.5370000  78.3420000  28.0240000
   9.5890000  79.9080000  47.3360000   9.4190000  80.5850000  46.1110000
   8.6130000  79.9130000  48.3390000  10.8330000  79.1790000  47.5670000
   8.6170000  81.0720000  45.9590000  10.3910000  80.5570000  45.1220000
   7.8000000  80.3850000  48.2080000   8.7840000  79.2330000  49.5520000
  11.8170000  79.1740000  46.5480000  11.0040000  78.4990000  48.7810000
  11.6220000  79.8330000  45.3480000  10.2190000  81.2170000  43.8680000
   7.7990000  79.2380000  50.5710000  10.0280000  78.5040000  49.7840000
  12.6320000  78.7060000  46.6930000  11.8170000  78.0260000  48.9110000
  12.6060000  79.8160000  44.3110000   9.4170000  81.6980000  43.7020000
  11.1770000  81.1740000  42.9090000   7.9950000  78.5780000  51.7720000
   6.9850000  79.7050000  50.4270000  10.1980000  77.8270000  51.0090000
  12.3950000  80.4600000  43.1380000  13.4210000  79.3470000  44.4470000
  11.0390000  81.6190000  42.0810000   7.0110000  78.5950000  52.8090000
   9.2260000  77.8540000  51.9980000  11.0000000  77.3390000  51.1600000
  13.0610000  80.4360000  42.4620000   7.2220000  77.9520000  53.9820000
   6.1960000  79.0640000  52.6730000   9.3980000  77.1940000  53.2520000
   8.4400000  77.2370000  54.2110000   6.5560000  77.9750000  54.6580000
  10.2000000  76.7130000  53.4180000   8.5780000  76.7920000  55.0390000
  10.5290000  81.7810000  63.8410000  10.7000000  81.1040000  65.0650000
  11.5050000  81.7750000  62.8370000   9.2850000  82.5100000  63.6090000
  11.5010000  80.6160000  65.2170000   9.7270000  81.1310000  66.0550000
  12.3190000  81.3030000  62.9680000  11.3340000  82.4550000  61.6240000
   8.3010000  82.5150000  64.6280000   9.1140000  83.1900000  62.3960000
   8.4960000  81.8550000  65.8290000   9.8990000  80.4710000  67.3090000
  12.3190000  82.4510000  60.6050000  10.0900000  83.1850000  61.3920000
   7.4860000  82.9820000  64.4830000   8.3010000  83.6620000  62.2650000
   7.5120000  81.8720000  66.8660000  10.7010000  79.9900000  67.4750000
   8.9410000  80.5140000  68.2680000  12.1230000  83.1100000  59.4050000
  13.1330000  81.9830000  60.7500000   9.9200000  83.8610000  60.1680000
   7.7230000  81.2290000  68.0380000   6.6970000  82.3410000  66.7300000
   9.0800000  80.0690000  69.0960000  13.1070000  83.0930000  58.3670000
  10.8920000  83.8340000  59.1780000   9.1190000  84.3490000  60.0160000
   7.0570000  81.2520000  68.7150000  12.8960000  83.7370000  57.1950000
  13.9220000  82.6240000  58.5040000  10.7210000  84.4940000  57.9250000
  11.6780000  84.4510000  56.9660000  13.5630000  83.7130000  56.5190000
   9.9180000  84.9750000  57.7590000  11.5400000  84.8960000  56.1380000
  11.0300000  85.0570000  77.8980000  11.2010000  84.3810000  79.1220000
  12.0060000  85.0520000  76.8940000   9.7860000  85.7860000  77.6660000
  12.0020000  83.8930000  79.2740000  10.2280000  84.4080000  80.1120000
  12.8200000  84.5800000  77.0250000  11.8360000  85.7320000  75.6810000
   8.8020000  85.7910000  78.6850000   9.6160000  86.4670000  76.4530000
   8.9980000  85.1320000  79.8860000  10.4000000  83.7480000  81.3660000
  12.8200000  85.7270000  74.6620000  10.5910000  86.4610000  75.4490000
   7.9880000  86.2590000  78.5400000   8.8020000  86.9390000  76.3220000
   8.0130000  85.1490000  80.9230000  11.2030000  83.2670000  81.5320000
   9.4420000  83.7910000  82.3240000  12.6240000  86.3870000  73.4620000
  13.6340000  85.2600000  74.8070000  10.4210000  87.1380000  74.2250000
   8.2250000  84.5050000  82.0950000   7.1990000  85.6180000  80.7870000
   9.5810000  83.3460000  83.1520000  13.6090000  86.3700000  72.4240000
  11.3940000  87.1110000  73.2350000   9.6200000  87.6260000  74.0730000
   7.5580000  84.5290000  82.7710000  13.3970000  87.0130000  71.2520000
  14.4230000  85.9010000  72.5610000  11.2220000  87.7710000  71.9810000
  12.1790000  87.7280000  71.0230000  14.0640000  86.9900000  70.5760000
  10.4190000  88.2520000  71.8150000  12.0410000  88.1730000  70.1950000
   9.3230000  81.0330000  19.2220000   9.1520000  81.7090000  17.9980000
   8.3470000  81.0380000  20.2260000  10.5670000  80.3040000  19.4540000
   8.3510000  82.1970000  17.8460000  10.1250000  81.6820000  17.0080000
   7.5330000  81.5100000  20.0950000   8.5170000  80.3580000  21.4390000
  11.5510000  80.2990000  18.4350000  10.7370000  79.6230000  20.6670000
  11.3550000  80.9580000  17.2340000   9.9530000  82.3420000  15.7540000
   7.5330000  80.3630000  22.4580000   9.7610000  79.6290000  21.6710000
  12.3650000  79.8310000  18.5800000  11.5510000  79.1510000  20.7980000
  12.3400000  80.9410000  16.1970000   9.1500000  82.8230000  15.5880000
  10.9110000  82.2990000  14.7950000   7.7290000  79.7030000  23.6580000
   6.7190000  80.8300000  22.3130000   9.9320000  78.9520000  22.8950000
  12.1280000  81.5850000  15.0250000  13.1540000  80.4720000  16.3330000
  10.7720000  82.7440000  13.9670000   6.7440000  79.7200000  24.6960000
   8.9590000  78.9790000  23.8850000  10.7330000  78.4640000  23.0470000
  12.7950000  81.5610000  14.3480000   6.9560000  79.0770000  25.8680000
   5.9300000  80.1890000  24.5590000   9.1310000  78.3190000  25.1380000
   8.1730000  78.3620000  26.0970000   6.2890000  79.1000000  26.5440000
   9.9340000  77.8380000  25.3040000   8.3120000  77.9170000  26.9250000
   9.8240000  84.3100000  33.2790000   9.6530000  84.9860000  32.0540000
   8.8480000  84.3150000  34.2820000  11.0680000  83.5800000  33.5110000
   8.8520000  85.4740000  31.9030000  10.6260000  84.9590000  31.0650000
   8.0340000  84.7870000  34.1520000   9.0190000  83.6350000  35.4960000
  12.0520000  83.5750000  32.4920000  11.2380000  82.9000000  34.7240000
  11.8570000  84.2350000  31.2910000  10.4540000  85.6190000  29.8110000
   8.0340000  83.6400000  36.5150000  10.2630000  82.9050000  35.7270000
  12.8670000  83.1080000  32.6360000  12.0520000  82.4280000  34.8550000
  12.8410000  84.2180000  30.2540000   9.6520000  86.1000000  29.6450000
  11.4120000  85.5760000  28.8520000   8.2300000  82.9800000  37.7150000
   7.2200000  84.1070000  36.3700000  10.4330000  82.2290000  36.9520000
  12.6300000  84.8610000  29.0810000  13.6560000  83.7490000  30.3900000
  11.2730000  86.0210000  28.0240000   7.2460000  82.9970000  38.7520000
   9.4610000  82.2560000  37.9410000  11.2340000  81.7410000  37.1040000
  13.2960000  84.8380000  28.4050000   7.4570000  82.3540000  39.9250000
   6.4310000  83.4660000  38.6160000   9.6320000  81.5960000  39.1950000
   8.6750000  81.6390000  40.1540000   6.7900000  82.3770000  40.6010000
  10.4350000  81.1150000  39.3610000   8.8130000  81.1940000  40.9820000
  10.3250000  87.5860000  47.3360000  10.1550000  88.2630000  46.1110000
   9.3490000  87.5920000  48.3390000  11.5690000  86.8570000  47.5670000
   9.3530000  88.7510000  45.9590000  11.1270000  88.2360000  45.1220000
   8.5360000  88.0640000  48.2080000   9.5200000  86.9110000  49.5520000
  12.5540000  86.8520000  46.5480000  11.7400000  86.1770000  48.7810000
  12.3580000  87.5120000  45.3480000  10.9550000  88.8960000  43.8680000
   8.5360000  86.9160000  50.5710000  10.7640000  86.1820000  49.7840000
  13.3680000  86.3850000  46.6930000  12.5530000  85.7050000  48.9110000
  13.3420000  87.4950000  44.3110000  10.1530000  89.3770000  43.7020000
  11.9130000  88.8530000  42.9090000   8.7310000  86.2570000  51.7720000
   7.7210000  87.3840000  50.4270000  10.9340000  85.5060000  51.0090000
  13.1310000  88.1380000  43.1380000  14.1570000  87.0260000  44.4470000
  11.7750000  89.2980000  42.0810000   7.7470000  86.2740000  52.8090000
   9.9620000  85.5330000  51.9980000  11.7360000  85.0180000  51.1600000
  13.7970000  88.1150000  42.4620000   7.9580000  85.6300000  53.9820000
   6.9320000  86.7430000  52.6730000  10.1340000  84.8730000  53.2520000
   9.1760000  84.9160000  54.2110000   7.2920000  85.6540000  54.6580000
  10.9360000  84.3920000  53.4180000   9.3140000  84.4710000  55.0390000
   9.2600000  76.3520000   7.6140000   9.4310000  75.6750000   8.8380000
  10.2360000  76.3470000   6.6100000   8.0160000  77.0810000   7.3820000
  10.2320000  75.1880000   8.9900000   8.4580000  75.7020000   9.8280000
  11.0500000  75.8740000   6.7410000  10.0650000  77.0270000   5.3970000
   7.0320000  77.0860000   8.4010000   7.8460000  77.7610000   6.1690000
   7.2270000  76.4270000   9.6010000   8.6300000  75.0420000  11.0820000
  11.0500000  77.0220000   4.3780000   8.8210000  77.7560000   5.1650000
   6.2170000  77.5540000   8.2560000   7.0320000  78.2340000   6.0380000
   6.2430000  76.4430000  10.6390000   9.4320000  74.5610000  11.2470000
   7.6720000  75.0850000  12.0400000  10.8540000  77.6810000   3.1770000
  11.8640000  76.5540000   4.5230000   8.6510000  78.4330000   3.9410000
   6.4540000  75.8000000  11.8110000   5.4280000  76.9120000  10.5020000
   7.8110000  74.6400000  12.8680000  11.8380000  77.6640000   2.1400000
   9.6230000  78.4050000   2.9510000   7.8500000  78.9200000   3.7890000
   5.7880000  75.8230000  12.4870000  11.6270000  78.3080000   0.9680000
  12.6530000  77.1950000   2.2760000   9.4520000  79.0650000   1.6970000
  10.4090000  79.0220000   0.7390000  12.2940000  78.2850000   0.2920000
   8.6490000  79.5460000   1.5310000  10.2710000  79.4670000  -0.0890000
  10.8260000  90.8630000  61.3920000  10.6560000  91.5400000  60.1680000
   9.8510000  90.8680000  62.3960000  12.0700000  90.1340000  61.6240000
   9.8550000  92.0270000  60.0160000  11.6280000  91.5130000  59.1780000
   9.0370000  91.3410000  62.2650000  10.0210000  90.1880000  63.6090000
  13.0550000  90.1290000  60.6050000  12.2410000  89.4540000  62.8370000
  12.8590000  90.7880000  59.4050000  11.4570000  92.1730000  57.9250000
   9.0370000  90.1930000  64.6280000  11.2650000  89.4590000  63.8410000
  13.8690000  89.6620000  60.7500000  13.0550000  88.9810000  62.9680000
  13.8430000  90.7720000  58.3670000  10.6540000  92.6540000  57.7590000
  12.4140000  92.1300000  56.9660000   9.2320000  89.5340000  65.8290000
   8.2220000  90.6610000  64.4830000  11.4360000  88.7820000  65.0650000
  13.6320000  91.4150000  57.1950000  14.6580000  90.3030000  58.5040000
  12.2760000  92.5750000  56.1380000   8.2480000  89.5510000  66.8660000
  10.4630000  88.8100000  66.0550000  12.2370000  88.2950000  65.2170000
  14.2990000  91.3920000  56.5190000   8.4590000  88.9070000  68.0380000
   7.4330000  90.0200000  66.7300000  10.6350000  88.1500000  67.3090000
   9.6770000  88.1930000  68.2680000   7.7930000  88.9300000  68.7150000
  11.4380000  87.6690000  67.4750000   9.8160000  87.7480000  69.0960000
  11.3280000  94.1400000  75.4490000  11.1570000  94.8170000  74.2250000
  10.3520000  94.1450000  76.4530000  12.5720000  93.4110000  75.6810000
  10.3560000  95.3040000  74.0730000  12.1300000  94.7900000  73.2350000
   9.5380000  94.6180000  76.3220000  10.5220000  93.4650000  77.6660000
  13.5560000  93.4060000  74.6620000  12.7420000  92.7310000  76.8940000
  13.3600000  94.0650000  73.4620000  11.9580000  95.4490000  71.9810000
   9.5380000  93.4700000  78.6850000  11.7670000  92.7360000  77.8980000
  14.3700000  92.9380000  74.8070000  13.5560000  92.2580000  77.0250000
  14.3450000  94.0480000  72.4240000  11.1550000  95.9310000  71.8150000
  12.9160000  95.4060000  71.0230000   9.7340000  92.8110000  79.8860000
   8.7240000  93.9380000  78.5400000  11.9370000  92.0590000  79.1220000
  14.1330000  94.6920000  71.2520000  15.1590000  93.5800000  72.5610000
  12.7770000  95.8510000  70.1950000   8.7490000  92.8280000  80.9230000
  10.9640000  92.0860000  80.1120000  12.7380000  91.5720000  79.2740000
  14.8000000  94.6690000  70.5760000   8.9610000  92.1840000  82.0950000
   7.9350000  93.2960000  80.7870000  11.1360000  91.4270000  81.3660000
  10.1790000  91.4700000  82.3240000   8.2940000  92.2070000  82.7710000
  11.9390000  90.9450000  81.5320000  10.3170000  91.0250000  83.1520000
   2.9320000  16.3270000   5.1650000   2.7620000  17.0040000   3.9410000
   1.9570000  16.3320000   6.1690000   4.1760000  15.5980000   5.3970000
   1.9610000  17.4910000   3.7890000   3.7340000  16.9770000   2.9510000
   1.1430000  16.8050000   6.0380000   2.1270000  15.6520000   7.3820000
   5.1610000  15.5930000   4.3780000   4.3470000  14.9180000   6.6100000
   4.9650000  16.2520000   3.1770000   3.5630000  17.6360000   1.6970000
   1.1430000  15.6570000   8.4010000   3.3710000  14.9230000   7.6140000
   5.9750000  15.1250000   4.5230000   5.1610000  14.4450000   6.7410000
   5.9490000  16.2350000   2.1400000   2.7600000  18.1180000   1.5310000
   4.5200000  17.5930000   0.7390000   1.3380000  14.9980000   9.6010000
   0.3280000  16.1250000   8.2560000   3.5420000  14.2460000   8.8380000
   5.7380000  16.8790000   0.9680000   6.7640000  15.7670000   2.2760000
   4.3820000  18.0390000  -0.0890000   0.3540000  15.0150000  10.6390000
   2.5690000  14.2740000   9.8280000   4.3430000  13.7590000   8.9900000
   6.4050000  16.8560000   0.2920000   0.5650000  14.3710000  11.8110000
  -0.4600000  15.4840000  10.5020000   2.7410000  13.6140000  11.0820000
   1.7830000  13.6570000  12.0400000  -0.1010000  14.3940000  12.4870000
   3.5440000  13.1320000  11.2470000   1.9220000  13.2120000  12.8680000
  10.3570000  82.0600000  89.5060000  10.1860000  82.7360000  88.2820000
   9.3810000  82.0650000  90.5100000  11.6010000  81.3310000  89.7380000
   9.3850000  83.2240000  88.1300000  11.1590000  82.7090000  87.2920000
   8.5670000  82.5370000  90.3790000   9.5510000  81.3850000  91.7230000
  12.5850000  81.3260000  88.7190000  11.7710000  80.6500000  90.9510000
  12.3890000  81.9850000  87.5180000  10.9870000  83.3690000  86.0380000
   8.5670000  81.3900000  92.7420000  10.7960000  80.6560000  91.9550000
  13.3990000  80.8580000  88.8640000  12.5850000  80.1780000  91.0820000
  13.3740000  81.9680000  86.4810000  10.1840000  83.8500000  85.8720000
  11.9450000  83.3260000  85.0800000   8.7630000  80.7300000  93.9420000
   7.7530000  81.8570000  92.5970000  10.9660000  79.9790000  93.1790000
  13.1620000  82.6120000  85.3090000  14.1880000  81.4990000  86.6170000
  11.8060000  83.7710000  84.2520000   7.7780000  80.7470000  94.9800000
   9.9930000  80.0060000  94.1690000  11.7670000  79.4910000  93.3310000
  13.8290000  82.5880000  84.6320000   7.9900000  80.1040000  96.1520000
   6.9640000  81.2160000  94.8430000  10.1650000  79.3460000  95.4230000
   9.2080000  79.3890000  96.3810000   7.3230000  80.1270000  96.8280000
  10.9680000  78.8650000  95.5880000   9.3460000  78.9440000  97.2090000
  11.0930000  89.7380000  89.5060000  10.9220000  90.4150000  88.2820000
  10.1170000  89.7430000  90.5100000  12.3370000  89.0090000  89.7380000
  10.1210000  90.9030000  88.1300000  11.8950000  90.3880000  87.2920000
   9.3030000  90.2160000  90.3790000  10.2880000  89.0630000  91.7230000
  13.3210000  89.0040000  88.7190000  12.5070000  88.3290000  90.9510000
  13.1260000  89.6630000  87.5180000  11.7230000  91.0480000  86.0380000
   9.3030000  89.0680000  92.7420000  11.5320000  88.3340000  91.9550000
  14.1350000  88.5370000  88.8640000  13.3210000  87.8570000  91.0820000
  14.1100000  89.6470000  86.4810000  10.9200000  91.5290000  85.8720000
  12.6810000  91.0050000  85.0800000   9.4990000  88.4090000  93.9420000
   8.4890000  89.5360000  92.5970000  11.7020000  87.6570000  93.1790000
  13.8990000  90.2900000  85.3090000  14.9240000  89.1780000  86.6170000
  12.5420000  91.4500000  84.2520000   8.5150000  88.4260000  94.9800000
  10.7300000  87.6850000  94.1690000  12.5030000  87.1700000  93.3310000
  14.5650000  90.2670000  84.6320000   8.7260000  87.7820000  96.1520000
   7.7000000  88.8950000  94.8430000  10.9010000  87.0250000  95.4230000
   9.9440000  87.0680000  96.3810000   8.0590000  87.8060000  96.8280000
  11.7040000  86.5440000  95.5880000  10.0820000  86.6230000  97.2090000
  12.2680000  96.0130000  91.9550000  12.4380000  95.3360000  93.1790000
  13.2440000  96.0080000  90.9510000  11.0240000  96.7420000  91.7230000
  13.2390000  94.8490000  93.3310000  11.4660000  95.3630000  94.1690000
  14.0570000  95.5350000  91.0820000  13.0730000  96.6880000  89.7380000
  10.0390000  96.7470000  92.7420000  10.8530000  97.4220000  90.5100000
  10.2350000  96.0880000  93.9420000  11.6370000  94.7030000  95.4230000
  14.0570000  96.6830000  88.7190000  11.8290000  97.4170000  89.5060000
   9.2250000  97.2140000  92.5970000  10.0390000  97.8950000  90.3790000
   9.2510000  96.1040000  94.9800000  12.4400000  94.2220000  95.5880000
  10.6800000  94.7460000  96.3810000  13.8620000  97.3420000  87.5180000
  14.8720000  96.2150000  88.8640000  11.6580000  98.0940000  88.2820000
   9.4620000  95.4610000  96.1520000   8.4360000  96.5730000  94.8430000
  10.8180000  94.3010000  97.2090000  14.8460000  97.3250000  86.4810000
  12.6310000  98.0660000  87.2920000  10.8570000  98.5810000  88.1300000
   8.7950000  95.4840000  96.8280000  14.6350000  97.9690000  85.3090000
  15.6610000  96.8560000  86.6170000  12.4590000  98.7260000  86.0380000
  13.4170000  98.6830000  85.0800000  15.3010000  97.9460000  84.6320000
  11.6570000  99.2070000  85.8720000  13.2780000  99.1280000  84.2520000
  68.6540000   7.2980000  21.8580000  68.8100000   7.1790000  23.2490000
  69.6350000   7.8560000  21.0270000  67.4230000   6.8100000  21.2530000
  69.6120000   7.4970000  23.6500000  67.8350000   6.6140000  24.0590000
  70.4490000   8.1730000  21.3990000  69.4560000   7.9580000  19.6390000
  66.4310000   6.2390000  22.0850000  67.2440000   6.9120000  19.8660000
  66.6100000   6.1380000  23.4600000  67.9980000   6.4880000  25.4810000
  70.4480000   8.5290000  18.8070000  68.2250000   7.4700000  19.0350000
  65.6260000   5.9180000  21.6960000  66.4300000   6.5950000  19.4930000
  65.6140000   5.5520000  24.3230000  68.7980000   6.7950000  25.8930000
  67.0190000   5.9370000  26.2430000  70.2690000   8.6300000  17.4320000
  71.2530000   8.8500000  19.1970000  68.0690000   7.5890000  17.6430000
  65.8120000   5.4550000  25.6590000  64.8040000   5.2280000  23.9480000
  67.1410000   5.8720000  27.1840000  71.2650000   9.2160000  16.5690000
  69.0450000   8.1540000  16.8340000  67.2670000   7.2710000  17.2430000
  65.1440000   5.0630000  26.2080000  71.0670000   9.3130000  15.2340000
  72.0750000   9.5400000  16.9450000  68.8810000   8.2800000  15.4110000
  69.8600000   8.8310000  14.6490000  71.7360000   9.7050000  14.6840000
  68.0810000   7.9730000  14.9990000  69.7390000   8.8960000  13.7090000
  68.7260000  10.7460000  33.0920000  68.5700000  10.8660000  31.7000000
  67.7450000  10.1890000  33.9230000  69.9570000  11.2340000  33.6960000
  67.7680000  10.5480000  31.3000000  69.5460000  11.4310000  30.8900000
  66.9320000   9.8720000  33.5500000  67.9240000  10.0870000  35.3100000
  70.9490000  11.8060000  32.8640000  70.1360000  11.1320000  35.0840000
  70.7700000  11.9070000  31.4890000  69.3820000  11.5560000  29.4680000
  66.9330000   9.5160000  36.1420000  69.1550000  10.5750000  35.9140000
  71.7540000  12.1270000  33.2530000  70.9500000  11.4500000  35.4560000
  71.7660000  12.4930000  30.6260000  68.5820000  11.2500000  29.0560000
  70.3610000  12.1080000  28.7060000  67.1110000   9.4150000  37.5170000
  66.1270000   9.1950000  35.7530000  69.3120000  10.4560000  37.3060000
  71.5680000  12.5900000  29.2910000  72.5760000  12.8170000  31.0020000
  70.2400000  12.1720000  27.7660000  66.1150000   8.8290000  38.3800000
  68.3360000   9.8900000  38.1160000  70.1130000  10.7730000  37.7070000
  72.2370000  12.9820000  28.7410000  66.3130000   8.7320000  39.7150000
  65.3050000   8.5050000  38.0050000  68.5000000   9.7650000  39.5380000
  67.5210000   9.2140000  40.3000000  65.6450000   8.3400000  40.2650000
  69.2990000  10.0720000  39.9500000  67.6420000   9.1490000  41.2410000
  71.1600000  23.6830000  92.1420000  71.3170000  23.5630000  93.5330000
  72.1420000  24.2400000  91.3110000  69.9300000  23.1950000  91.5370000
  72.1180000  23.8810000  93.9340000  70.3410000  22.9980000  94.3430000
  72.9550000  24.5570000  91.6830000  71.9620000  24.3420000  89.9230000
  68.9380000  22.6230000  92.3690000  69.7500000  23.2970000  90.1500000
  69.1160000  22.5220000  93.7440000  70.5050000  22.8730000  95.7650000
  72.9540000  24.9130000  89.0910000  70.7310000  23.8540000  89.3190000
  68.1320000  22.3020000  91.9800000  68.9370000  22.9790000  89.7770000
  68.1200000  21.9360000  94.6070000  71.3040000  23.1790000  96.1770000
  69.5260000  22.3210000  96.5270000  72.7750000  25.0140000  87.7170000
  73.7590000  25.2340000  89.4810000  70.5750000  23.9730000  87.9270000
  68.3180000  21.8390000  95.9430000  67.3100000  21.6120000  94.2320000
  69.6470000  22.2570000  97.4680000  73.7710000  25.6000000  86.8530000
  71.5510000  24.5390000  87.1180000  69.7740000  23.6560000  87.5270000
  67.6500000  21.4470000  96.4920000  73.5730000  25.6980000  85.5180000
  74.5810000  25.9240000  87.2290000  71.3870000  24.6640000  85.6950000
  72.3660000  25.2150000  84.9330000  74.2420000  26.0890000  84.9680000
  70.5870000  24.3570000  85.2830000  72.2450000  25.2800000  83.9930000
  70.6590000  20.4060000  78.0850000  70.8160000  20.2860000  79.4760000
  71.6400000  20.9630000  77.2540000  69.4280000  19.9180000  77.4800000
  71.6170000  20.6040000  79.8770000  69.8400000  19.7210000  80.2860000
  72.4540000  21.2800000  77.6270000  71.4610000  21.0650000  75.8670000
  68.4360000  19.3460000  78.3130000  69.2490000  20.0200000  76.0930000
  68.6150000  19.2450000  79.6870000  70.0030000  19.5960000  81.7090000
  72.4530000  21.6370000  75.0350000  70.2300000  20.5770000  75.2620000
  67.6310000  19.0250000  77.9230000  68.4350000  19.7020000  75.7200000
  67.6190000  18.6590000  80.5500000  70.8030000  19.9020000  82.1210000
  69.0240000  19.0450000  82.4710000  72.2740000  21.7380000  73.6600000
  73.2580000  21.9580000  75.4240000  70.0740000  20.6960000  73.8710000
  67.8170000  18.5620000  81.8860000  66.8090000  18.3350000  80.1750000
  69.1460000  18.9800000  83.4110000  73.2700000  22.3230000  72.7970000
  71.0500000  21.2620000  73.0610000  69.2720000  20.3790000  73.4700000
  67.1490000  18.1700000  82.4350000  73.0720000  22.4210000  71.4610000
  74.0800000  22.6470000  73.1720000  70.8860000  21.3870000  71.6380000
  71.8650000  21.9380000  70.8770000  73.7410000  22.8120000  70.9120000
  70.0860000  21.0810000  71.2270000  71.7440000  22.0030000  69.9360000
  70.7000000  29.3810000  47.1490000  70.5430000  29.5000000  45.7570000
  69.7190000  28.8230000  47.9790000  71.9310000  29.8680000  47.7530000
  69.7420000  29.1820000  45.3560000  71.5190000  30.0650000  44.9470000
  68.9050000  28.5060000  47.6070000  69.8980000  28.7210000  49.3670000
  72.9230000  30.4400000  46.9210000  72.1100000  29.7670000  49.1400000
  72.7440000  30.5410000  45.5460000  71.3550000  30.1900000  43.5250000
  68.9060000  28.1500000  50.1990000  71.1290000  29.2090000  49.9710000
  73.7280000  30.7610000  47.3100000  72.9230000  30.0840000  49.5130000
  73.7400000  31.1270000  44.6830000  70.5560000  29.8840000  43.1130000
  72.3340000  30.7420000  42.7630000  69.0850000  28.0490000  51.5740000
  68.1010000  27.8290000  49.8100000  71.2850000  29.0900000  51.3630000
  73.5420000  31.2240000  43.3480000  74.5500000  31.4510000  45.0580000
  72.2130000  30.8060000  41.8220000  68.0890000  27.4630000  52.4370000
  70.3090000  28.5250000  52.1730000  72.0870000  29.4070000  51.7630000
  74.2100000  31.6160000  42.7980000  68.2870000  27.3660000  53.7720000
  67.2790000  27.1390000  52.0610000  70.4730000  28.3990000  53.5950000
  69.4940000  27.8480000  54.3570000  67.6180000  26.9740000  54.3220000
  71.2730000  28.7060000  54.0070000  69.6150000  27.7830000  55.2970000
  71.2010000  32.6570000  61.2050000  71.0450000  32.7770000  59.8140000
  70.2200000  32.1000000  62.0360000  72.4320000  33.1450000  61.8100000
  70.2430000  32.4590000  59.4130000  72.0210000  33.3420000  59.0040000
  69.4060000  31.7830000  61.6640000  70.3990000  31.9980000  63.4240000
  73.4240000  33.7170000  60.9780000  72.6110000  33.0430000  63.1970000
  73.2450000  33.8180000  59.6030000  71.8570000  33.4670000  57.5820000
  69.4070000  31.4270000  64.2560000  71.6300000  32.4860000  64.0280000
  74.2290000  34.0380000  61.3670000  73.4250000  33.3610000  63.5700000
  74.2410000  34.4040000  58.7400000  71.0570000  33.1610000  57.1700000
  72.8360000  34.0180000  56.8200000  69.5860000  31.3250000  65.6300000
  68.6020000  31.1050000  63.8660000  71.7870000  32.3670000  65.4200000
  74.0430000  34.5010000  57.4040000  75.0510000  34.7280000  59.1150000
  72.7150000  34.0830000  55.8790000  68.5900000  30.7400000  66.4940000
  70.8110000  31.8010000  66.2290000  72.5880000  32.6840000  65.8200000
  74.7120000  34.8930000  56.8550000  68.7880000  30.6420000  67.8290000
  67.7800000  30.4160000  66.1180000  70.9740000  31.6760000  67.6520000
  69.9950000  31.1250000  68.4140000  68.1200000  30.2510000  68.3790000
  71.7740000  31.9820000  68.0640000  70.1170000  31.0600000  69.3540000
  72.1310000  35.7630000  78.0850000  72.2880000  35.6430000  79.4760000
  73.1120000  36.3200000  77.2540000  70.9010000  35.2750000  77.4800000
  73.0890000  35.9610000  79.8770000  71.3120000  35.0780000  80.2860000
  73.9260000  36.6370000  77.6270000  72.9330000  36.4220000  75.8670000
  69.9090000  34.7030000  78.3130000  70.7210000  35.3770000  76.0930000
  70.0870000  34.6020000  79.6870000  71.4760000  34.9530000  81.7090000
  73.9250000  36.9940000  75.0350000  71.7020000  35.9340000  75.2620000
  69.1030000  34.3820000  77.9230000  69.9080000  35.0600000  75.7200000
  69.0910000  34.0160000  80.5500000  72.2750000  35.2590000  82.1210000
  70.4970000  34.4020000  82.4710000  73.7460000  37.0950000  73.6600000
  74.7300000  37.3150000  75.4240000  71.5460000  36.0540000  73.8710000
  69.2890000  33.9190000  81.8860000  68.2810000  33.6920000  80.1750000
  70.6180000  34.3370000  83.4110000  74.7420000  37.6810000  72.7970000
  72.5220000  36.6190000  73.0610000  70.7440000  35.7360000  73.4700000
  68.6210000  33.5270000  82.4350000  74.5440000  37.7780000  71.4610000
  75.5520000  38.0050000  73.1720000  72.3580000  36.7440000  71.6380000
  73.3370000  37.2950000  70.8770000  75.2130000  38.1700000  70.9120000
  71.5580000  36.4380000  71.2270000  73.2160000  37.3600000  69.9360000
  72.2040000  39.2110000  89.3190000  72.0470000  39.3300000  87.9270000
  71.2220000  38.6540000  90.1500000  73.4340000  39.6990000  89.9230000
  71.2460000  39.0130000  87.5270000  73.0230000  39.8960000  87.1180000
  70.4090000  38.3370000  89.7770000  71.4020000  38.5520000  91.5370000
  74.4260000  40.2710000  89.0910000  73.6140000  39.5970000  91.3110000
  74.2480000  40.3720000  87.7170000  72.8590000  40.0210000  85.6950000
  70.4100000  37.9800000  92.3690000  72.6330000  39.0400000  92.1420000
  75.2320000  40.5920000  89.4810000  74.4270000  39.9140000  91.6830000
  75.2440000  40.9570000  86.8530000  72.0590000  39.7150000  85.2830000
  73.8380000  40.5720000  84.9330000  70.5890000  37.8790000  93.7440000
  69.6050000  37.6590000  91.9800000  72.7890000  38.9200000  93.5330000
  75.0460000  41.0550000  85.5180000  76.0530000  41.2810000  87.2290000
  73.7170000  40.6370000  83.9930000  69.5930000  37.2930000  94.6070000
  71.8130000  38.3550000  94.3430000  73.5900000  39.2380000  93.9340000
  75.7140000  41.4460000  84.9680000  69.7910000  37.1960000  95.9430000
  68.7830000  36.9690000  94.2320000  71.9770000  38.2300000  95.7650000
  70.9980000  37.6790000  96.5270000  69.1220000  36.8040000  96.4920000
  72.7770000  38.5360000  96.1770000  71.1190000  37.6140000  97.4680000
  70.9350000  33.7820000  33.0920000  70.7780000  33.9020000  31.7000000
  69.9530000  33.2250000  33.9230000  72.1650000  34.2700000  33.6960000
  69.9770000  33.5840000  31.3000000  71.7540000  34.4670000  30.8900000
  69.1400000  32.9080000  33.5500000  70.1330000  33.1230000  35.3100000
  73.1570000  34.8420000  32.8640000  72.3450000  34.1680000  35.0840000
  72.9790000  34.9430000  31.4890000  71.5900000  34.5920000  29.4680000
  69.1410000  32.5510000  36.1420000  71.3640000  33.6110000  35.9140000
  73.9630000  35.1630000  33.2530000  73.1580000  34.4850000  35.4560000
  73.9750000  35.5290000  30.6260000  70.7900000  34.2860000  29.0560000
  72.5690000  35.1430000  28.7060000  69.3200000  32.4500000  37.5170000
  68.3360000  32.2300000  35.7530000  71.5200000  33.4920000  37.3060000
  73.7770000  35.6260000  29.2910000  74.7840000  35.8530000  31.0020000
  72.4480000  35.2080000  27.7660000  68.3240000  31.8640000  38.3800000
  70.5440000  32.9260000  38.1160000  72.3210000  33.8090000  37.7070000
  74.4450000  36.0180000  28.7410000  68.5220000  31.7670000  39.7150000
  67.5140000  31.5410000  38.0050000  70.7080000  32.8010000  39.5380000
  69.7290000  32.2500000  40.3000000  67.8530000  31.3760000  40.2650000
  71.5080000  33.1070000  39.9500000  69.8500000  32.1850000  41.2410000
  69.9320000  27.2290000   4.9780000  69.7760000  27.3480000   3.5870000
  68.9510000  26.6710000   5.8090000  71.1630000  27.7170000   5.5830000
  68.9740000  27.0300000   3.1860000  70.7520000  27.9130000   2.7770000
  68.1370000  26.3540000   5.4360000  69.1300000  26.5690000   7.1960000
  72.1550000  28.2880000   4.7500000  71.3420000  27.6150000   6.9700000
  71.9760000  28.3890000   3.3760000  70.5880000  28.0390000   1.3540000
  68.1380000  25.9980000   8.0280000  70.3610000  27.0570000   7.8010000
  72.9600000  28.6090000   5.1400000  72.1560000  27.9320000   7.3430000
  72.9720000  28.9750000   2.5130000  69.7880000  27.7320000   0.9420000
  71.5670000  28.5900000   0.5920000  68.3170000  25.8970000   9.4030000
  67.3330000  25.6770000   7.6390000  70.5180000  26.9380000   9.1920000
  72.7740000  29.0720000   1.1770000  73.7820000  29.2990000   2.8880000
  71.4460000  28.6550000  -0.3480000  67.3210000  25.3110000  10.2660000
  69.5420000  26.3730000  10.0020000  71.3190000  27.2550000   9.5930000
  73.4430000  29.4640000   0.6280000  67.5190000  25.2140000  11.6020000
  66.5110000  24.9870000   9.8910000  69.7050000  26.2470000  11.4250000
  68.7270000  25.6960000  12.1860000  66.8510000  24.8220000  12.1510000
  70.5050000  26.5540000  11.8360000  68.8480000  25.6310000  13.1270000
  70.4330000  30.5050000  19.0350000  70.2770000  30.6250000  17.6430000
  69.4520000  29.9480000  19.8660000  71.6640000  30.9930000  19.6390000
  69.4760000  30.3070000  17.2430000  71.2530000  31.1900000  16.8340000
  68.6390000  29.6310000  19.4930000  69.6320000  29.8460000  21.2530000
  72.6560000  31.5650000  18.8070000  71.8440000  30.8910000  21.0270000
  72.4770000  31.6660000  17.4320000  71.0890000  31.3150000  15.4110000
  68.6400000  29.2750000  22.0850000  70.8620000  30.3340000  21.8580000
  73.4610000  31.8860000  19.1970000  72.6570000  31.2090000  21.3990000
  73.4730000  32.2520000  16.5690000  70.2890000  31.0090000  14.9990000
  72.0680000  31.8670000  14.6490000  68.8180000  29.1740000  23.4600000
  67.8340000  28.9530000  21.6960000  71.0190000  30.2150000  23.2490000
  73.2750000  32.3490000  15.2340000  74.2830000  32.5760000  16.9450000
  71.9470000  31.9310000  13.7090000  67.8220000  28.5880000  24.3230000
  70.0430000  29.6490000  24.0590000  71.8200000  30.5320000  23.6500000
  73.9440000  32.7410000  14.6840000  68.0200000  28.4900000  25.6590000
  67.0130000  28.2640000  23.9480000  70.2070000  29.5240000  25.4810000
  69.2280000  28.9730000  26.2430000  67.3520000  28.0990000  26.2080000
  71.0070000  29.8310000  25.8930000  69.3490000  28.9080000  27.1840000
  72.3660000  40.1650000  64.0280000  72.5230000  40.0450000  65.4200000
  73.3470000  40.7220000  63.1970000  71.1350000  39.6770000  63.4240000
  73.3240000  40.3630000  65.8200000  71.5470000  39.4800000  66.2290000
  74.1610000  41.0390000  63.5700000  73.1680000  40.8240000  61.8100000
  70.1430000  39.1050000  64.2560000  70.9560000  39.7790000  62.0360000
  70.3220000  39.0040000  65.6300000  71.7110000  39.3550000  67.6520000
  74.1600000  41.3950000  60.9780000  71.9370000  40.3360000  61.2050000
  69.3380000  38.7840000  63.8660000  70.1420000  39.4610000  61.6640000
  69.3260000  38.4180000  66.4940000  72.5100000  39.6610000  68.0640000
  70.7320000  38.8040000  68.4140000  73.9810000  41.4970000  59.6030000
  74.9650000  41.7170000  61.3670000  71.7810000  40.4550000  59.8140000
  69.5240000  38.3210000  67.8290000  68.5160000  38.0940000  66.1180000
  70.8530000  38.7390000  69.3540000  74.9770000  42.0820000  58.7400000
  72.7570000  41.0210000  59.0040000  70.9790000  40.1380000  59.4130000
  68.8560000  37.9290000  68.3790000  74.7790000  42.1800000  57.4040000
  75.7870000  42.4060000  59.1150000  72.5930000  41.1460000  57.5820000
  73.5720000  41.6970000  56.8200000  75.4480000  42.5710000  56.8550000
  71.7930000  40.8400000  57.1700000  73.4510000  41.7620000  55.8790000
  72.8670000  43.4410000  78.0850000  73.0240000  43.3220000  79.4760000
  73.8490000  43.9990000  77.2540000  71.6370000  42.9530000  77.4800000
  73.8250000  43.6400000  79.8770000  72.0480000  42.7570000  80.2860000
  74.6620000  44.3160000  77.6270000  73.6690000  44.1010000  75.8670000
  70.6450000  42.3820000  78.3130000  71.4570000  43.0550000  76.0930000
  70.8230000  42.2810000  79.6870000  72.2120000  42.6320000  81.7090000
  74.6610000  44.6720000  75.0350000  72.4380000  43.6130000  75.2620000
  69.8390000  42.0610000  77.9230000  70.6440000  42.7380000  75.7200000
  69.8270000  41.6950000  80.5500000  73.0120000  42.9380000  82.1210000
  71.2330000  42.0800000  82.4710000  74.4820000  44.7730000  73.6600000
  75.4660000  44.9930000  75.4240000  72.2820000  43.7320000  73.8710000
  70.0250000  41.5980000  81.8860000  69.0180000  41.3710000  80.1750000
  71.3540000  42.0160000  83.4110000  75.4780000  45.3590000  72.7970000
  73.2580000  44.2970000  73.0610000  71.4810000  43.4150000  73.4700000
  69.3570000  41.2060000  82.4350000  75.2810000  45.4560000  71.4610000
  76.2880000  45.6830000  73.1720000  73.0940000  44.4230000  71.6380000
  74.0730000  44.9740000  70.8770000  75.9490000  45.8480000  70.9120000
  72.2940000  44.1160000  71.2270000  73.9520000  45.0390000  69.9360000
  72.9400000  46.8900000  89.3190000  72.7830000  47.0090000  87.9270000
  71.9590000  46.3320000  90.1500000  74.1700000  47.3780000  89.9230000
  71.9820000  46.6910000  87.5270000  73.7590000  47.5740000  87.1180000
  71.1450000  46.0150000  89.7770000  72.1380000  46.2300000  91.5370000
  75.1620000  47.9490000  89.0910000  74.3500000  47.2760000  91.3110000
  74.9840000  48.0500000  87.7170000  73.5950000  47.7000000  85.6950000
  71.1460000  45.6590000  92.3690000  73.3690000  46.7180000  92.1420000
  75.9680000  48.2700000  89.4810000  75.1630000  47.5930000  91.6830000
  75.9800000  48.6360000  86.8530000  72.7960000  47.3930000  85.2830000
  74.5740000  48.2510000  84.9330000  71.3250000  45.5580000  93.7440000
  70.3410000  45.3380000  91.9800000  73.5250000  46.5990000  93.5330000
  75.7820000  48.7330000  85.5180000  76.7900000  48.9600000  87.2290000
  74.4530000  48.3160000  83.9930000  70.3290000  44.9720000  94.6070000
  72.5490000  46.0340000  94.3430000  74.3270000  46.9160000  93.9340000
  76.4500000  49.1250000  84.9680000  70.5270000  44.8750000  95.9430000
  69.5190000  44.6480000  94.2320000  72.7130000  45.9080000  95.7650000
  71.7340000  45.3570000  96.5270000  69.8580000  44.4830000  96.4920000
  73.5130000  46.2150000  96.1770000  71.8550000  45.2920000  97.4680000
  71.1690000  38.1840000  19.0350000  71.0130000  38.3030000  17.6430000
  70.1880000  37.6270000  19.8660000  72.4000000  38.6720000  19.6390000
  70.2120000  37.9860000  17.2430000  71.9890000  38.8690000  16.8340000
  69.3750000  37.3100000  19.4930000  70.3680000  37.5250000  21.2530000
  73.3920000  39.2440000  18.8070000  72.5800000  38.5700000  21.0270000
  73.2140000  39.3450000  17.4320000  71.8250000  38.9940000  15.4110000
  69.3760000  36.9530000  22.0850000  71.5990000  38.0130000  21.8580000
  74.1980000  39.5650000  19.1970000  73.3930000  38.8870000  21.3990000
  74.2100000  39.9310000  16.5690000  71.0250000  38.6880000  14.9990000
  72.8040000  39.5450000  14.6490000  69.5540000  36.8520000  23.4600000
  68.5700000  36.6320000  21.6960000  71.7550000  37.8930000  23.2490000
  74.0120000  40.0280000  15.2340000  75.0190000  40.2550000  16.9450000
  72.6830000  39.6100000  13.7090000  68.5580000  36.2660000  24.3230000
  70.7790000  37.3280000  24.0590000  72.5560000  38.2110000  23.6500000
  74.6800000  40.4190000  14.6840000  68.7560000  36.1690000  25.6590000
  67.7490000  35.9420000  23.9480000  70.9430000  37.2030000  25.4810000
  69.9640000  36.6520000  26.2430000  68.0880000  35.7770000  26.2080000
  71.7430000  37.5090000  25.8930000  70.0850000  36.5870000  27.1840000
  71.6710000  41.4610000  33.0920000  71.5140000  41.5800000  31.7000000
  70.6900000  40.9040000  33.9230000  72.9020000  41.9490000  33.6960000
  70.7130000  41.2630000  31.3000000  72.4900000  42.1460000  30.8900000
  69.8760000  40.5860000  33.5500000  70.8690000  40.8020000  35.3100000
  73.8930000  42.5200000  32.8640000  73.0810000  41.8470000  35.0840000
  73.7150000  42.6210000  31.4890000  72.3260000  42.2710000  29.4680000
  69.8770000  40.2300000  36.1420000  72.1000000  41.2900000  35.9140000
  74.6990000  42.8420000  33.2530000  73.8940000  42.1640000  35.4560000
  74.7110000  43.2070000  30.6260000  71.5270000  41.9640000  29.0560000
  73.3050000  42.8220000  28.7060000  70.0560000  40.1290000  37.5170000
  69.0720000  39.9090000  35.7530000  72.2560000  41.1700000  37.3060000
  74.5130000  43.3050000  29.2910000  75.5210000  43.5310000  31.0020000
  73.1840000  42.8870000  27.7660000  69.0600000  39.5430000  38.3800000
  71.2800000  40.6050000  38.1160000  73.0580000  41.4880000  37.7070000
  75.1810000  43.6960000  28.7410000  69.2580000  39.4460000  39.7150000
  68.2500000  39.2190000  38.0050000  71.4440000  40.4800000  39.5380000
  70.4650000  39.9290000  40.3000000  68.5890000  39.0540000  40.2650000
  72.2440000  40.7860000  39.9500000  70.5860000  39.8640000  41.2410000
  72.1720000  44.7380000  47.1490000  72.0160000  44.8570000  45.7570000
  71.1910000  44.1800000  47.9790000  73.4030000  45.2260000  47.7530000
  71.2140000  44.5400000  45.3560000  72.9920000  45.4220000  44.9470000
  70.3770000  43.8630000  47.6070000  71.3700000  44.0780000  49.3670000
  74.3950000  45.7970000  46.9210000  73.5820000  45.1240000  49.1400000
  74.2160000  45.8980000  45.5460000  72.8280000  45.5480000  43.5250000
  70.3780000  43.5070000  50.1990000  72.6010000  44.5660000  49.9710000
  75.2000000  46.1180000  47.3100000  74.3960000  45.4410000  49.5130000
  75.2120000  46.4840000  44.6830000  72.0280000  45.2410000  43.1130000
  73.8070000  46.0990000  42.7630000  70.5570000  43.4060000  51.5740000
  69.5730000  43.1860000  49.8100000  72.7570000  44.4470000  51.3630000
  75.0140000  46.5810000  43.3480000  76.0220000  46.8080000  45.0580000
  73.6860000  46.1640000  41.8220000  69.5610000  42.8200000  52.4370000
  71.7820000  43.8820000  52.1730000  73.5590000  44.7650000  51.7630000
  75.6830000  46.9730000  42.7980000  69.7590000  42.7230000  53.7720000
  68.7510000  42.4960000  52.0610000  71.9450000  43.7560000  53.5950000
  70.9660000  43.2050000  54.3570000  69.0910000  42.3310000  54.3220000
  72.7450000  44.0630000  54.0070000  71.0880000  43.1400000  55.2970000
  74.1050000  54.3970000  92.1420000  74.2610000  54.2770000  93.5330000
  75.0860000  54.9540000  91.3110000  72.8740000  53.9090000  91.5370000
  75.0630000  54.5950000  93.9340000  73.2850000  53.7120000  94.3430000
  75.8990000  55.2710000  91.6830000  74.9070000  55.0560000  89.9230000
  71.8820000  53.3370000  92.3690000  72.6950000  54.0110000  90.1500000
  72.0610000  53.2360000  93.7440000  73.4490000  53.5870000  95.7650000
  75.8990000  55.6280000  89.0910000  73.6760000  54.5680000  89.3190000
  71.0770000  53.0160000  91.9800000  71.8810000  53.6940000  89.7770000
  71.0650000  52.6500000  94.6070000  74.2490000  53.8930000  96.1770000
  72.4700000  53.0360000  96.5270000  75.7200000  55.7290000  87.7170000
  76.7040000  55.9490000  89.4810000  73.5190000  54.6880000  87.9270000
  71.2630000  52.5530000  95.9430000  70.2550000  52.3260000  94.2320000
  72.5910000  52.9710000  97.4680000  76.7160000  56.3150000  86.8530000
  74.4950000  55.2530000  87.1180000  72.7180000  54.3700000  87.5270000
  70.5940000  52.1620000  96.4920000  76.5180000  56.4120000  85.5180000
  77.5260000  56.6390000  87.2290000  74.3310000  55.3780000  85.6950000
  75.3100000  55.9290000  84.9330000  77.1860000  56.8040000  84.9680000
  73.5320000  55.0720000  85.2830000  75.1890000  55.9940000  83.9930000
  72.6730000  48.0150000  61.2050000  72.5170000  48.1340000  59.8140000
  71.6920000  47.4570000  62.0360000  73.9040000  48.5030000  61.8100000
  71.7150000  47.8160000  59.4130000  73.4930000  48.6990000  59.0040000
  70.8790000  47.1400000  61.6640000  71.8710000  47.3550000  63.4240000
  74.8960000  49.0740000  60.9780000  74.0830000  48.4010000  63.1970000
  74.7170000  49.1750000  59.6030000  73.3290000  48.8250000  57.5820000
  70.8800000  46.7840000  64.2560000  73.1020000  47.8430000  64.0280000
  75.7010000  49.3950000  61.3670000  74.8970000  48.7180000  63.5700000
  75.7130000  49.7610000  58.7400000  72.5290000  48.5180000  57.1700000
  74.3080000  49.3760000  56.8200000  71.0580000  46.6830000  65.6300000
  70.0740000  46.4630000  63.8660000  73.2590000  47.7240000  65.4200000
  75.5150000  49.8580000  57.4040000  76.5230000  50.0850000  59.1150000
  74.1870000  49.4400000  55.8790000  70.0620000  46.0970000  66.4940000
  72.2830000  47.1590000  66.2290000  74.0600000  48.0410000  65.8200000
  76.1840000  50.2500000  56.8550000  70.2600000  46.0000000  67.8290000
  69.2520000  45.7730000  66.1180000  72.4470000  47.0330000  67.6520000
  71.4680000  46.4820000  68.4140000  69.5920000  45.6080000  68.3790000
  73.2460000  47.3400000  68.0640000  71.5890000  46.4170000  69.3540000
  73.6040000  51.1200000  78.0850000  73.7600000  51.0010000  79.4760000
  74.5850000  51.6770000  77.2540000  72.3730000  50.6320000  77.4800000
  74.5610000  51.3180000  79.8770000  72.7840000  50.4350000  80.2860000
  75.3980000  51.9950000  77.6270000  74.4050000  51.7790000  75.8670000
  71.3810000  50.0610000  78.3130000  72.1930000  50.7340000  76.0930000
  71.5600000  49.9590000  79.6870000  72.9480000  50.3100000  81.7090000
  75.3970000  52.3510000  75.0350000  73.1750000  51.2910000  75.2620000
  70.5760000  49.7390000  77.9230000  71.3800000  50.4170000  75.7200000
  70.5640000  49.3740000  80.5500000  73.7480000  50.6170000  82.1210000
  71.9690000  49.7590000  82.4710000  75.2190000  52.4520000  73.6600000
  76.2030000  52.6720000  75.4240000  73.0180000  51.4110000  73.8710000
  70.7610000  49.2760000  81.8860000  69.7540000  49.0500000  80.1750000
  72.0900000  49.6940000  83.4110000  76.2150000  53.0380000  72.7970000
  73.9940000  51.9760000  73.0610000  72.2170000  51.0930000  73.4700000
  70.0930000  48.8850000  82.4350000  76.0170000  53.1350000  71.4610000
  77.0240000  53.3620000  73.1720000  73.8300000  52.1010000  71.6380000
  74.8090000  52.6520000  70.8770000  76.6850000  53.5270000  70.9120000
  73.0300000  51.7950000  71.2270000  74.6880000  52.7170000  69.9360000
  70.6680000  34.9070000   4.9780000  70.5120000  35.0270000   3.5870000
  69.6870000  34.3500000   5.8090000  71.8990000  35.3950000   5.5830000
  69.7100000  34.7090000   3.1860000  71.4880000  35.5920000   2.7770000
  68.8740000  34.0330000   5.4360000  69.8660000  34.2480000   7.1960000
  72.8910000  35.9670000   4.7500000  72.0780000  35.2930000   6.9700000
  72.7120000  36.0680000   3.3760000  71.3240000  35.7170000   1.3540000
  68.8750000  33.6760000   8.0280000  71.0970000  34.7360000   7.8010000
  73.6960000  36.2880000   5.1400000  72.8920000  35.6100000   7.3430000
  73.7080000  36.6540000   2.5130000  70.5240000  35.4110000   0.9420000
  72.3030000  36.2680000   0.5920000  69.0530000  33.5750000   9.4030000
  68.0690000  33.3550000   7.6390000  71.2540000  34.6160000   9.1920000
  73.5100000  36.7510000   1.1770000  74.5180000  36.9780000   2.8880000
  72.1820000  36.3330000  -0.3480000  68.0570000  32.9890000  10.2660000
  70.2780000  34.0510000  10.0020000  72.0550000  34.9340000   9.5930000
  74.1790000  37.1430000   0.6280000  68.2550000  32.8920000  11.6020000
  67.2470000  32.6650000   9.8910000  70.4420000  33.9260000  11.4250000
  69.4630000  33.3750000  12.1860000  67.5870000  32.5010000  12.1510000
  71.2410000  34.2320000  11.8360000  69.5840000  33.3100000  13.1270000
  72.4070000  49.1390000  33.0920000  72.2500000  49.2590000  31.7000000
  71.4260000  48.5820000  33.9230000  73.6380000  49.6270000  33.6960000
  71.4490000  48.9410000  31.3000000  73.2260000  49.8240000  30.8900000
  70.6120000  48.2650000  33.5500000  71.6050000  48.4800000  35.3100000
  74.6300000  50.1990000  32.8640000  73.8170000  49.5250000  35.0840000
  74.4510000  50.3000000  31.4890000  73.0630000  49.9490000  29.4680000
  70.6130000  47.9090000  36.1420000  72.8360000  48.9680000  35.9140000
  75.4350000  50.5200000  33.2530000  74.6310000  49.8430000  35.4560000
  75.4470000  50.8860000  30.6260000  72.2630000  49.6430000  29.0560000
  74.0420000  50.5010000  28.7060000  70.7920000  47.8080000  37.5170000
  69.8080000  47.5870000  35.7530000  72.9920000  48.8490000  37.3060000
  75.2490000  50.9830000  29.2910000  76.2570000  51.2100000  31.0020000
  73.9200000  50.5650000  27.7660000  69.7960000  47.2220000  38.3800000
  72.0160000  48.2830000  38.1160000  73.7940000  49.1660000  37.7070000
  75.9170000  51.3750000  28.7410000  69.9940000  47.1240000  39.7150000
  68.9860000  46.8980000  38.0050000  72.1800000  48.1580000  39.5380000
  71.2010000  47.6070000  40.3000000  69.3250000  46.7330000  40.2650000
  72.9800000  48.4650000  39.9500000  71.3220000  47.5420000  41.2410000
  73.4090000  55.6930000  61.2050000  73.2530000  55.8130000  59.8140000
  72.4280000  55.1360000  62.0360000  74.6400000  56.1810000  61.8100000
  72.4520000  55.4950000  59.4130000  74.2290000  56.3780000  59.0040000
  71.6150000  54.8190000  61.6640000  72.6080000  55.0340000  63.4240000
  75.6320000  56.7530000  60.9780000  74.8200000  56.0790000  63.1970000
  75.4530000  56.8540000  59.6030000  74.0650000  56.5030000  57.5820000
  71.6160000  54.4620000  64.2560000  73.8380000  55.5220000  64.0280000
  76.4370000  57.0740000  61.3670000  75.6330000  56.3960000  63.5700000
  76.4490000  57.4400000  58.7400000  73.2650000  56.1970000  57.1700000
  75.0440000  57.0540000  56.8200000  71.7940000  54.3610000  65.6300000
  70.8100000  54.1410000  63.8660000  73.9950000  55.4020000  65.4200000
  76.2510000  57.5370000  57.4040000  77.2590000  57.7640000  59.1150000
  74.9230000  57.1190000  55.8790000  70.7980000  53.7750000  66.4940000
  73.0190000  54.8370000  66.2290000  74.7960000  55.7200000  65.8200000
  76.9200000  57.9290000  56.8550000  70.9960000  53.6780000  67.8290000
  69.9890000  53.4510000  66.1180000  73.1830000  54.7120000  67.6520000
  72.2040000  54.1610000  68.4140000  70.3280000  53.2860000  68.3790000
  73.9830000  55.0180000  68.0640000  72.3250000  54.0960000  69.3540000
  72.3350000  45.6910000  21.8580000  72.4910000  45.5720000  23.2490000
  73.3160000  46.2490000  21.0270000  71.1040000  45.2030000  21.2530000
  73.2920000  45.8900000  23.6500000  71.5150000  45.0070000  24.0590000
  74.1290000  46.5660000  21.3990000  73.1360000  46.3510000  19.6390000
  70.1120000  44.6320000  22.0850000  70.9240000  45.3050000  19.8660000
  70.2910000  44.5310000  23.4600000  71.6790000  44.8810000  25.4810000
  74.1280000  46.9220000  18.8070000  71.9060000  45.8630000  19.0350000
  69.3070000  44.3110000  21.6960000  70.1110000  44.9880000  19.4930000
  69.2950000  43.9450000  24.3230000  72.4790000  45.1880000  25.8930000
  70.7000000  44.3300000  26.2430000  73.9500000  47.0230000  17.4320000
  74.9340000  47.2430000  19.1970000  71.7490000  45.9820000  17.6430000
  69.4930000  43.8480000  25.6590000  68.4850000  43.6210000  23.9480000
  70.8210000  44.2650000  27.1840000  74.9460000  47.6090000  16.5690000
  72.7250000  46.5470000  16.8340000  70.9480000  45.6640000  17.2430000
  68.8240000  43.4560000  26.2080000  74.7480000  47.7060000  15.2340000
  75.7550000  47.9330000  16.9450000  72.5610000  46.6730000  15.4110000
  73.5400000  47.2240000  14.6490000  75.4160000  48.0980000  14.6840000
  71.7610000  46.3660000  14.9990000  73.4190000  47.2890000  13.7090000
  71.4040000  42.5860000   4.9780000  71.2480000  42.7050000   3.5870000
  70.4230000  42.0280000   5.8090000  72.6350000  43.0740000   5.5830000
  70.4470000  42.3880000   3.1860000  72.2240000  43.2710000   2.7770000
  69.6100000  41.7110000   5.4360000  70.6030000  41.9270000   7.1960000
  73.6270000  43.6450000   4.7500000  72.8150000  42.9720000   6.9700000
  73.4480000  43.7460000   3.3760000  72.0600000  43.3960000   1.3540000
  69.6110000  41.3550000   8.0280000  71.8330000  42.4150000   7.8010000
  74.4320000  43.9660000   5.1400000  73.6280000  43.2890000   7.3430000
  74.4440000  44.3320000   2.5130000  71.2600000  43.0890000   0.9420000
  73.0390000  43.9470000   0.5920000  69.7890000  41.2540000   9.4030000
  68.8050000  41.0340000   7.6390000  71.9900000  42.2950000   9.1920000
  74.2460000  44.4290000   1.1770000  75.2540000  44.6560000   2.8880000
  72.9180000  44.0120000  -0.3480000  68.7930000  40.6680000  10.2660000
  71.0140000  41.7300000  10.0020000  72.7910000  42.6130000   9.5930000
  74.9150000  44.8210000   0.6280000  68.9910000  40.5710000  11.6020000
  67.9840000  40.3440000   9.8910000  71.1780000  41.6050000  11.4250000
  70.1990000  41.0530000  12.1860000  68.3230000  40.1790000  12.1510000
  71.9780000  41.9110000  11.8360000  70.3200000  40.9890000  13.1270000
  74.3400000  58.7990000  78.0850000  74.4960000  58.6790000  79.4760000
  75.3210000  59.3560000  77.2540000  73.1090000  58.3110000  77.4800000
  75.2970000  58.9970000  79.8770000  73.5200000  58.1140000  80.2860000
  76.1340000  59.6730000  77.6270000  75.1410000  59.4580000  75.8670000
  72.1170000  57.7390000  78.3130000  72.9290000  58.4130000  76.0930000
  72.2960000  57.6380000  79.6870000  73.6840000  57.9890000  81.7090000
  76.1330000  60.0300000  75.0350000  73.9110000  58.9700000  75.2620000
  71.3120000  57.4180000  77.9230000  72.1160000  58.0950000  75.7200000
  71.3000000  57.0520000  80.5500000  74.4840000  58.2950000  82.1210000
  72.7050000  57.4380000  82.4710000  75.9550000  60.1310000  73.6600000
  76.9390000  60.3510000  75.4240000  73.7540000  59.0890000  73.8710000
  71.4980000  56.9550000  81.8860000  70.4900000  56.7280000  80.1750000
  72.8260000  57.3730000  83.4110000  76.9510000  60.7160000  72.7970000
  74.7300000  59.6550000  73.0610000  72.9530000  58.7720000  73.4700000
  70.8290000  56.5630000  82.4350000  76.7530000  60.8140000  71.4610000
  77.7610000  61.0400000  73.1720000  74.5660000  59.7800000  71.6380000
  75.5450000  60.3310000  70.8770000  77.4210000  61.2050000  70.9120000
  73.7670000  59.4740000  71.2270000  75.4240000  60.3960000  69.9360000
  74.4120000  62.2470000  89.3190000  74.2550000  62.3660000  87.9270000
  73.4310000  61.6890000  90.1500000  75.6430000  62.7350000  89.9230000
  73.4540000  62.0490000  87.5270000  75.2310000  62.9320000  87.1180000
  72.6170000  61.3720000  89.7770000  73.6100000  61.5880000  91.5370000
  76.6350000  63.3060000  89.0910000  75.8220000  62.6330000  91.3110000
  76.4560000  63.4070000  87.7170000  75.0680000  63.0570000  85.6950000
  72.6180000  61.0160000  92.3690000  74.8410000  62.0760000  92.1420000
  77.4400000  63.6270000  89.4810000  76.6360000  62.9500000  91.6830000
  77.4520000  63.9930000  86.8530000  74.2680000  62.7500000  85.2830000
  76.0470000  63.6080000  84.9330000  72.7970000  60.9150000  93.7440000
  71.8130000  60.6950000  91.9800000  74.9970000  61.9560000  93.5330000
  77.2540000  64.0900000  85.5180000  78.2620000  64.3170000  87.2290000
  75.9250000  63.6730000  83.9930000  71.8010000  60.3290000  94.6070000
  74.0210000  61.3910000  94.3430000  75.7990000  62.2740000  93.9340000
  77.9220000  64.4820000  84.9680000  71.9990000  60.2320000  95.9430000
  70.9910000  60.0050000  94.2320000  74.1850000  61.2660000  95.7650000
  73.2060000  60.7140000  96.5270000  71.3300000  59.8400000  96.4920000
  74.9850000  61.5720000  96.1770000  73.3270000  60.6500000  97.4680000
  74.6470000  66.6490000  75.2620000  74.4900000  66.7680000  73.8710000
  73.6660000  66.0910000  76.0930000  75.8780000  67.1370000  75.8670000
  73.6890000  66.4500000  73.4700000  75.4660000  67.3330000  73.0610000
  72.8520000  65.7740000  75.7200000  73.8450000  65.9890000  77.4800000
  76.8690000  67.7080000  75.0350000  76.0570000  67.0350000  77.2540000
  76.6910000  67.8090000  73.6600000  75.3020000  67.4590000  71.6380000
  72.8530000  65.4180000  78.3130000  75.0760000  66.4770000  78.0850000
  77.6750000  68.0290000  75.4240000  76.8700000  67.3520000  77.6270000
  77.6870000  68.3950000  72.7970000  74.5030000  67.1520000  71.2270000
  76.2810000  68.0100000  70.8770000  73.0320000  65.3170000  79.6870000
  72.0480000  65.0970000  77.9230000  75.2320000  66.3580000  79.4760000
  77.4890000  68.4920000  71.4610000  78.4970000  68.7190000  73.1720000
  76.1600000  68.0750000  69.9360000  72.0360000  64.7310000  80.5500000
  74.2560000  65.7930000  80.2860000  76.0340000  66.6750000  79.8770000
  78.1570000  68.8840000  70.9120000  72.2340000  64.6340000  81.8860000
  71.2260000  64.4070000  80.1750000  74.4200000  65.6670000  81.7090000
  73.4410000  65.1160000  82.4710000  71.5650000  64.2420000  82.4350000
  75.2200000  65.9740000  82.1210000  73.5620000  65.0510000  83.4110000
  73.6440000  60.0950000  47.1490000  73.4880000  60.2140000  45.7570000
  72.6630000  59.5380000  47.9790000  74.8750000  60.5830000  47.7530000
  72.6860000  59.8970000  45.3560000  74.4640000  60.7800000  44.9470000
  71.8500000  59.2200000  47.6070000  72.8420000  59.4360000  49.3670000
  75.8670000  61.1540000  46.9210000  75.0540000  60.4810000  49.1400000
  75.6880000  61.2560000  45.5460000  74.3000000  60.9050000  43.5250000
  71.8510000  58.8640000  50.1990000  74.0730000  59.9240000  49.9710000
  76.6720000  61.4760000  47.3100000  75.8680000  60.7980000  49.5130000
  76.6840000  61.8410000  44.6830000  73.5000000  60.5980000  43.1130000
  75.2790000  61.4560000  42.7630000  72.0290000  58.7630000  51.5740000
  71.0450000  58.5430000  49.8100000  74.2300000  59.8040000  51.3630000
  76.4860000  61.9390000  43.3480000  77.4940000  62.1650000  45.0580000
  75.1580000  61.5210000  41.8220000  71.0330000  58.1770000  52.4370000
  73.2540000  59.2390000  52.1730000  75.0310000  60.1220000  51.7630000
  77.1550000  62.3300000  42.7980000  71.2310000  58.0800000  53.7720000
  70.2230000  57.8530000  52.0610000  73.4180000  59.1140000  53.5950000
  72.4390000  58.5630000  54.3570000  70.5630000  57.6880000  54.3220000
  74.2170000  59.4200000  54.0070000  72.5600000  58.4980000  55.2970000
  74.5750000  63.2000000  64.0280000  74.7310000  63.0810000  65.4200000
  75.5560000  63.7580000  63.1970000  73.3440000  62.7120000  63.4240000
  75.5320000  63.3990000  65.8200000  73.7550000  62.5160000  66.2290000
  76.3690000  64.0750000  63.5700000  75.3760000  63.8600000  61.8100000
  72.3520000  62.1410000  64.2560000  73.1640000  62.8140000  62.0360000
  72.5300000  62.0400000  65.6300000  73.9190000  62.3900000  67.6520000
  76.3680000  64.4310000  60.9780000  74.1460000  63.3720000  61.2050000
  71.5460000  61.8200000  63.8660000  72.3510000  62.4970000  61.6640000
  71.5340000  61.4540000  66.4940000  74.7190000  62.6970000  68.0640000
  72.9400000  61.8390000  68.4140000  76.1900000  64.5320000  59.6030000
  77.1740000  64.7520000  61.3670000  73.9890000  63.4910000  59.8140000
  71.7320000  61.3570000  67.8290000  70.7250000  61.1300000  66.1180000
  73.0610000  61.7740000  69.3540000  77.1860000  65.1180000  58.7400000
  74.9650000  64.0560000  59.0040000  73.1880000  63.1740000  59.4130000
  71.0640000  60.9650000  68.3790000  76.9880000  65.2150000  57.4040000
  77.9950000  65.4420000  59.1150000  74.8010000  64.1820000  57.5820000
  75.7800000  64.7330000  56.8200000  77.6560000  65.6070000  56.8550000
  74.0010000  63.8750000  57.1700000  75.6590000  64.7980000  55.8790000
  73.5720000  56.6470000  35.9140000  73.7280000  56.5270000  37.3060000
  74.5530000  57.2040000  35.0840000  72.3410000  56.1590000  35.3100000
  74.5300000  56.8450000  37.7070000  72.7530000  55.9620000  38.1160000
  75.3670000  57.5210000  35.4560000  74.3740000  57.3060000  33.6960000
  71.3490000  55.5870000  36.1420000  72.1620000  56.2610000  33.9230000
  71.5280000  55.4860000  37.5170000  72.9160000  55.8370000  39.5380000
  75.3660000  57.8780000  32.8640000  73.1430000  56.8180000  33.0920000
  70.5440000  55.2660000  35.7530000  71.3480000  55.9440000  33.5500000
  70.5320000  54.9000000  38.3800000  73.7160000  56.1430000  39.9500000
  71.9370000  55.2860000  40.3000000  75.1870000  57.9790000  31.4890000
  76.1710000  58.1990000  33.2530000  72.9870000  56.9370000  31.7000000
  70.7300000  54.8030000  39.7150000  69.7220000  54.5760000  38.0050000
  72.0590000  55.2210000  41.2410000  76.1830000  58.5650000  30.6260000
  73.9620000  57.5030000  30.8900000  72.1850000  56.6200000  31.3000000
  70.0610000  54.4110000  40.2650000  75.9850000  58.6620000  29.2910000
  76.9930000  58.8890000  31.0020000  73.7990000  57.6280000  29.4680000
  74.7780000  58.1790000  28.7060000  76.6540000  59.0530000  28.7410000
  72.9990000  57.3220000  29.0560000  74.6560000  58.2440000  27.7660000
  74.3080000  64.3250000  35.9140000  74.4650000  64.2060000  37.3060000
  75.2890000  64.8830000  35.0840000  73.0770000  63.8370000  35.3100000
  75.2660000  64.5240000  37.7070000  73.4890000  63.6410000  38.1160000
  76.1030000  65.2000000  35.4560000  75.1100000  64.9850000  33.6960000
  72.0850000  63.2660000  36.1420000  72.8980000  63.9390000  33.9230000
  72.2640000  63.1650000  37.5170000  73.6520000  63.5150000  39.5380000
  76.1020000  65.5560000  32.8640000  73.8790000  64.4970000  33.0920000
  71.2800000  62.9450000  35.7530000  72.0840000  63.6220000  33.5500000
  71.2680000  62.5790000  38.3800000  74.4520000  63.8220000  39.9500000
  72.6740000  62.9640000  40.3000000  75.9230000  65.6570000  31.4890000
  76.9070000  65.8770000  33.2530000  73.7230000  64.6160000  31.7000000
  71.4660000  62.4820000  39.7150000  70.4580000  62.2550000  38.0050000
  72.7950000  62.8990000  41.2410000  76.9190000  66.2430000  30.6260000
  74.6990000  65.1810000  30.8900000  72.9210000  64.2980000  31.3000000
  70.7980000  62.0900000  40.2650000  76.7210000  66.3400000  29.2910000
  77.7290000  66.5670000  31.0020000  74.5350000  65.3070000  29.4680000
  75.5140000  65.8580000  28.7060000  77.3900000  66.7320000  28.7410000
  73.7350000  65.0000000  29.0560000  75.3930000  65.9230000  27.7660000
  74.8820000  71.0500000  61.2050000  74.7250000  71.1700000  59.8140000
  73.9000000  70.4930000  62.0360000  76.1120000  71.5380000  61.8100000
  73.9240000  70.8520000  59.4130000  75.7010000  71.7350000  59.0040000
  73.0870000  70.1760000  61.6640000  74.0800000  70.3910000  63.4240000
  77.1040000  72.1100000  60.9780000  76.2920000  71.4360000  63.1970000
  76.9260000  72.2110000  59.6030000  75.5370000  71.8600000  57.5820000
  73.0880000  69.8190000  64.2560000  75.3110000  70.8790000  64.0280000
  77.9100000  72.4310000  61.3670000  77.1050000  71.7540000  63.5700000
  77.9220000  72.7970000  58.7400000  74.7370000  71.5540000  57.1700000
  76.5160000  72.4110000  56.8200000  73.2670000  69.7180000  65.6300000
  72.2830000  69.4980000  63.8660000  75.4670000  70.7600000  65.4200000
  77.7240000  72.8940000  57.4040000  78.7310000  73.1210000  59.1150000
  76.3950000  72.4760000  55.8790000  72.2710000  69.1330000  66.4940000
  74.4910000  70.1940000  66.2290000  76.2680000  71.0770000  65.8200000
  78.3920000  73.2860000  56.8550000  72.4690000  69.0350000  67.8290000
  71.4610000  68.8090000  66.1180000  74.6550000  70.0690000  67.6520000
  73.6760000  69.5180000  68.4140000  71.8000000  68.6440000  68.3790000
  75.4550000  70.3750000  68.0640000  73.7970000  69.4530000  69.3540000
  75.3830000  74.3270000  75.2620000  75.2260000  74.4470000  73.8710000
  74.4020000  73.7700000  76.0930000  76.6140000  74.8150000  75.8670000
  74.4250000  74.1290000  73.4700000  76.2020000  75.0120000  73.0610000
  73.5880000  73.4530000  75.7200000  74.5810000  73.6680000  77.4800000
  77.6060000  75.3870000  75.0350000  76.7930000  74.7130000  77.2540000
  77.4270000  75.4880000  73.6600000  76.0390000  75.1370000  71.6380000
  73.5890000  73.0960000  78.3130000  75.8120000  74.1560000  78.0850000
  78.4110000  75.7080000  75.4240000  77.6070000  75.0300000  77.6270000
  78.4230000  76.0740000  72.7970000  75.2390000  74.8310000  71.2270000
  77.0180000  75.6880000  70.8770000  73.7680000  72.9950000  79.6870000
  72.7840000  72.7750000  77.9230000  75.9680000  74.0360000  79.4760000
  78.2250000  76.1710000  71.4610000  79.2330000  76.3980000  73.1720000
  76.8960000  75.7530000  69.9360000  72.7720000  72.4090000  80.5500000
  74.9920000  73.4710000  80.2860000  76.7700000  74.3540000  79.8770000
  78.8930000  76.5630000  70.9120000  72.9700000  72.3120000  81.8860000
  71.9620000  72.0850000  80.1750000  75.1560000  73.3460000  81.7090000
  74.1770000  72.7950000  82.4710000  72.3010000  71.9200000  82.4350000
  75.9560000  73.6520000  82.1210000  74.2980000  72.7300000  83.4110000
  75.0440000  72.0040000  35.9140000  75.2010000  71.8850000  37.3060000
  76.0250000  72.5610000  35.0840000  73.8130000  71.5160000  35.3100000
  76.0020000  72.2020000  37.7070000  74.2250000  71.3190000  38.1160000
  76.8390000  72.8780000  35.4560000  75.8460000  72.6630000  33.6960000
  72.8220000  70.9440000  36.1420000  73.6340000  71.6180000  33.9230000
  73.0000000  70.8430000  37.5170000  74.3890000  71.1940000  39.5380000
  76.8380000  73.2350000  32.8640000  74.6150000  72.1750000  33.0920000
  72.0160000  70.6230000  35.7530000  72.8210000  71.3010000  33.5500000
  72.0040000  70.2570000  38.3800000  75.1880000  71.5000000  39.9500000
  73.4100000  70.6430000  40.3000000  76.6590000  73.3360000  31.4890000
  77.6430000  73.5560000  33.2530000  74.4590000  72.2950000  31.7000000
  72.2020000  70.1600000  39.7150000  71.1940000  69.9330000  38.0050000
  73.5310000  70.5780000  41.2410000  77.6550000  73.9220000  30.6260000
  75.4350000  72.8600000  30.8900000  73.6570000  71.9770000  31.3000000
  71.5340000  69.7690000  40.2650000  77.4570000  74.0190000  29.2910000
  78.4650000  74.2460000  31.0020000  75.2710000  72.9850000  29.4680000
  76.2500000  73.5360000  28.7060000  78.1260000  74.4110000  28.7410000
  74.4710000  72.6790000  29.0560000  76.1290000  73.6010000  27.7660000
  75.5460000  75.2810000  49.9710000  75.7020000  75.1610000  51.3630000
  76.5270000  75.8380000  49.1400000  74.3150000  74.7930000  49.3670000
  76.5030000  75.4790000  51.7630000  74.7260000  74.5960000  52.1730000
  77.3400000  76.1550000  49.5130000  76.3470000  75.9400000  47.7530000
  73.3230000  74.2210000  50.1990000  74.1350000  74.8950000  47.9790000
  73.5010000  74.1200000  51.5740000  74.8900000  74.4710000  53.5950000
  77.3390000  76.5120000  46.9210000  75.1160000  75.4520000  47.1490000
  72.5170000  73.9000000  49.8100000  73.3220000  74.5780000  47.6070000
  72.5050000  73.5340000  52.4370000  75.6900000  74.7770000  54.0070000
  73.9110000  73.9200000  54.3570000  77.1610000  76.6130000  45.5460000
  78.1450000  76.8330000  47.3100000  74.9600000  75.5720000  45.7570000
  72.7030000  73.4370000  53.7720000  71.6960000  73.2100000  52.0610000
  74.0320000  73.8550000  55.2970000  78.1570000  77.1990000  44.6830000
  75.9360000  76.1370000  44.9470000  74.1590000  75.2540000  45.3560000
  72.0350000  73.0450000  54.3220000  77.9590000  77.2960000  43.3480000
  78.9660000  77.5230000  45.0580000  75.7720000  76.2620000  43.5250000
  76.7510000  76.8130000  42.7630000  78.6270000  77.6870000  42.7980000
  74.9720000  75.9560000  43.1130000  76.6300000  76.8780000  41.8220000
  76.1190000  82.0060000  75.2620000  75.9630000  82.1250000  73.8710000
  75.1380000  81.4480000  76.0930000  77.3500000  82.4940000  75.8670000
  75.1610000  81.8080000  73.4700000  76.9380000  82.6900000  73.0610000
  74.3240000  81.1310000  75.7200000  75.3170000  81.3460000  77.4800000
  78.3420000  83.0650000  75.0350000  77.5290000  82.3920000  77.2540000
  78.1630000  83.1660000  73.6600000  76.7750000  82.8160000  71.6380000
  74.3250000  80.7750000  78.3130000  76.5480000  81.8340000  78.0850000
  79.1470000  83.3860000  75.4240000  78.3430000  82.7090000  77.6270000
  79.1590000  83.7520000  72.7970000  75.9750000  82.5090000  71.2270000
  77.7540000  83.3670000  70.8770000  74.5040000  80.6740000  79.6870000
  73.5200000  80.4540000  77.9230000  76.7040000  81.7150000  79.4760000
  78.9610000  83.8490000  71.4610000  79.9690000  84.0760000  73.1720000
  77.6330000  83.4320000  69.9360000  73.5080000  80.0880000  80.5500000
  75.7290000  81.1500000  80.2860000  77.5060000  82.0330000  79.8770000
  79.6300000  84.2410000  70.9120000  73.7060000  79.9910000  81.8860000
  72.6980000  79.7640000  80.1750000  75.8920000  81.0240000  81.7090000
  74.9130000  80.4730000  82.4710000  73.0380000  79.5990000  82.4350000
  76.6920000  81.3310000  82.1210000  75.0350000  80.4090000  83.4110000
  75.6180000  78.7290000  61.2050000  75.4610000  78.8480000  59.8140000
  74.6370000  78.1720000  62.0360000  76.8490000  79.2170000  61.8100000
  74.6600000  78.5310000  59.4130000  76.4370000  79.4140000  59.0040000
  73.8230000  77.8540000  61.6640000  74.8160000  78.0700000  63.4240000
  77.8400000  79.7880000  60.9780000  77.0280000  79.1150000  63.1970000
  77.6620000  79.8900000  59.6030000  76.2730000  79.5390000  57.5820000
  73.8240000  77.4980000  64.2560000  76.0470000  78.5580000  64.0280000
  78.6460000  80.1100000  61.3670000  77.8410000  79.4320000  63.5700000
  78.6580000  80.4750000  58.7400000  75.4740000  79.2320000  57.1700000
  77.2520000  80.0900000  56.8200000  74.0030000  77.3970000  65.6300000
  73.0190000  77.1770000  63.8660000  76.2030000  78.4380000  65.4200000
  78.4600000  80.5730000  57.4040000  79.4680000  80.7990000  59.1150000
  77.1310000  80.1550000  55.8790000  73.0070000  76.8110000  66.4940000
  75.2270000  77.8730000  66.2290000  77.0050000  78.7560000  65.8200000
  79.1280000  80.9640000  56.8550000  73.2050000  76.7140000  67.8290000
  72.1970000  76.4870000  66.1180000  75.3910000  77.7480000  67.6520000
  74.4120000  77.1970000  68.4140000  72.5360000  76.3220000  68.3790000
  76.1910000  78.0540000  68.0640000  74.5330000  77.1320000  69.3540000
  75.2790000  76.4060000  21.8580000  75.4360000  76.2860000  23.2490000
  76.2600000  76.9630000  21.0270000  74.0480000  75.9180000  21.2530000
  76.2370000  76.6040000  23.6500000  74.4600000  75.7210000  24.0590000
  77.0740000  77.2800000  21.3990000  76.0810000  77.0650000  19.6390000
  73.0560000  75.3460000  22.0850000  73.8690000  76.0200000  19.8660000
  73.2350000  75.2450000  23.4600000  74.6230000  75.5960000  25.4810000
  77.0730000  77.6370000  18.8070000  74.8500000  76.5770000  19.0350000
  72.2510000  75.0250000  21.6960000  73.0550000  75.7030000  19.4930000
  72.2390000  74.6590000  24.3230000  75.4230000  75.9020000  25.8930000
  73.6440000  75.0450000  26.2430000  76.8940000  77.7380000  17.4320000
  77.8780000  77.9580000  19.1970000  74.6940000  76.6960000  17.6430000
  72.4370000  74.5620000  25.6590000  71.4290000  74.3350000  23.9480000
  73.7660000  74.9800000  27.1840000  77.8900000  78.3240000  16.5690000
  75.6700000  77.2620000  16.8340000  73.8920000  76.3790000  17.2430000
  71.7690000  74.1700000  26.2080000  77.6920000  78.4210000  15.2340000
  78.7000000  78.6470000  16.9450000  75.5060000  77.3870000  15.4110000
  76.4850000  77.9380000  14.6490000  78.3610000  78.8120000  14.6840000
  74.7060000  77.0810000  14.9990000  76.3640000  78.0030000  13.7090000
  75.3510000  79.8540000  33.0920000  75.1950000  79.9730000  31.7000000
  74.3700000  79.2970000  33.9230000  76.5820000  80.3420000  33.6960000
  74.3940000  79.6560000  31.3000000  76.1710000  80.5390000  30.8900000
  73.5570000  78.9790000  33.5500000  74.5500000  79.1950000  35.3100000
  77.5740000  80.9130000  32.8640000  76.7620000  80.2400000  35.0840000
  77.3950000  81.0140000  31.4890000  76.0070000  80.6640000  29.4680000
  73.5580000  78.6230000  36.1420000  75.7800000  79.6830000  35.9140000
  78.3790000  81.2350000  33.2530000  77.5750000  80.5570000  35.4560000
  78.3910000  81.6000000  30.6260000  75.2070000  80.3570000  29.0560000
  76.9860000  81.2150000  28.7060000  73.7360000  78.5220000  37.5170000
  72.7520000  78.3020000  35.7530000  75.9370000  79.5630000  37.3060000
  78.1930000  81.6980000  29.2910000  79.2010000  81.9240000  31.0020000
  76.8650000  81.2800000  27.7660000  72.7400000  77.9360000  38.3800000
  74.9610000  78.9980000  38.1160000  76.7380000  79.8810000  37.7070000
  78.8620000  82.0890000  28.7410000  72.9380000  77.8390000  39.7150000
  71.9310000  77.6120000  38.0050000  75.1250000  78.8730000  39.5380000
  74.1460000  78.3210000  40.3000000  72.2700000  77.4470000  40.2650000
  75.9250000  79.1790000  39.9500000  74.2670000  78.2570000  41.2410000
  75.8530000  83.1310000  47.1490000  75.6960000  83.2500000  45.7570000
  74.8710000  82.5730000  47.9790000  77.0830000  83.6190000  47.7530000
  74.8950000  82.9320000  45.3560000  76.6720000  83.8150000  44.9470000
  74.0580000  82.2560000  47.6070000  75.0510000  82.4710000  49.3670000
  78.0750000  84.1900000  46.9210000  77.2630000  83.5170000  49.1400000
  77.8970000  84.2910000  45.5460000  76.5080000  83.9410000  43.5250000
  74.0590000  81.9000000  50.1990000  76.2820000  82.9590000  49.9710000
  78.8810000  84.5110000  47.3100000  78.0760000  83.8340000  49.5130000
  78.8930000  84.8770000  44.6830000  75.7080000  83.6340000  43.1130000
  77.4870000  84.4920000  42.7630000  74.2380000  81.7990000  51.5740000
  73.2540000  81.5790000  49.8100000  76.4380000  82.8400000  51.3630000
  78.6950000  84.9740000  43.3480000  79.7020000  85.2010000  45.0580000
  77.3660000  84.5570000  41.8220000  73.2420000  81.2130000  52.4370000
  75.4620000  82.2750000  52.1730000  77.2390000  83.1580000  51.7630000
  79.3630000  85.3660000  42.7980000  73.4400000  81.1160000  53.7720000
  72.4320000  80.8890000  52.0610000  75.6260000  82.1490000  53.5950000
  74.6470000  81.5980000  54.3570000  72.7710000  80.7240000  54.3220000
  76.4260000  82.4560000  54.0070000  74.7680000  81.5330000  55.2970000
  76.3540000  86.4080000  61.2050000  76.1970000  86.5270000  59.8140000
  75.3730000  85.8500000  62.0360000  77.5850000  86.8950000  61.8100000
  75.3960000  86.2090000  59.4130000  77.1730000  87.0920000  59.0040000
  74.5590000  85.5330000  61.6640000  75.5520000  85.7480000  63.4240000
  78.5770000  87.4670000  60.9780000  77.7640000  86.7940000  63.1970000
  78.3980000  87.5680000  59.6030000  77.0100000  87.2170000  57.5820000
  74.5600000  85.1770000  64.2560000  76.7830000  86.2360000  64.0280000
  79.3820000  87.7880000  61.3670000  78.5780000  87.1110000  63.5700000
  79.3940000  88.1540000  58.7400000  76.2100000  86.9110000  57.1700000
  77.9890000  87.7690000  56.8200000  74.7390000  85.0760000  65.6300000
  73.7550000  84.8560000  63.8660000  76.9390000  86.1170000  65.4200000
  79.1960000  88.2510000  57.4040000  80.2040000  88.4780000  59.1150000
  77.8670000  87.8330000  55.8790000  73.7430000  84.4900000  66.4940000
  75.9630000  85.5520000  66.2290000  77.7410000  86.4340000  65.8200000
  79.8640000  88.6430000  56.8550000  73.9410000  84.3930000  67.8290000
  72.9330000  84.1660000  66.1180000  76.1270000  85.4260000  67.6520000
  75.1480000  84.8750000  68.4140000  73.2720000  84.0010000  68.3790000
  76.9270000  85.7330000  68.0640000  75.2690000  84.8100000  69.3540000
  77.2840000  89.5130000  78.0850000  77.4410000  89.3940000  79.4760000
  78.2650000  90.0700000  77.2540000  76.0530000  89.0250000  77.4800000
  78.2420000  89.7110000  79.8770000  76.4650000  88.8280000  80.2860000
  79.0790000  90.3880000  77.6270000  78.0860000  90.1720000  75.8670000
  75.0610000  88.4540000  78.3130000  75.8740000  89.1270000  76.0930000
  75.2400000  88.3520000  79.6870000  76.6280000  88.7030000  81.7090000
  79.0780000  90.7440000  75.0350000  76.8550000  89.6840000  75.2620000
  74.2560000  88.1320000  77.9230000  75.0600000  88.8100000  75.7200000
  74.2440000  87.7670000  80.5500000  77.4280000  89.0090000  82.1210000
  75.6500000  88.1520000  82.4710000  78.8990000  90.8450000  73.6600000
  79.8830000  91.0650000  75.4240000  76.6990000  89.8040000  73.8710000
  74.4420000  87.6690000  81.8860000  73.4340000  87.4430000  80.1750000
  75.7710000  88.0870000  83.4110000  79.8950000  91.4310000  72.7970000
  77.6750000  90.3690000  73.0610000  75.8970000  89.4860000  73.4700000
  73.7740000  87.2780000  82.4350000  79.6970000  91.5280000  71.4610000
  80.7050000  91.7550000  73.1720000  77.5110000  90.4940000  71.6380000
  78.4900000  91.0450000  70.8770000  80.3660000  91.9200000  70.9120000
  76.7110000  90.1880000  71.2270000  78.3690000  91.1100000  69.9360000
  77.7850000  92.7900000  92.1420000  77.9420000  92.6700000  93.5330000
  78.7670000  93.3470000  91.3110000  76.5550000  92.3020000  91.5370000
  78.7430000  92.9880000  93.9340000  76.9660000  92.1050000  94.3430000
  79.5800000  93.6640000  91.6830000  78.5870000  93.4490000  89.9230000
  75.5630000  91.7300000  92.3690000  76.3750000  92.4040000  90.1500000
  75.7410000  91.6290000  93.7440000  77.1300000  91.9800000  95.7650000
  79.5790000  94.0210000  89.0910000  77.3560000  92.9610000  89.3190000
  74.7570000  91.4090000  91.9800000  75.5620000  92.0870000  89.7770000
  74.7450000  91.0430000  94.6070000  77.9300000  92.2860000  96.1770000
  76.1510000  91.4290000  96.5270000  79.4000000  94.1220000  87.7170000
  80.3840000  94.3420000  89.4810000  77.2000000  93.0810000  87.9270000
  74.9430000  90.9460000  95.9430000  73.9360000  90.7190000  94.2320000
  76.2720000  91.3640000  97.4680000  80.3960000  94.7080000  86.8530000
  78.1760000  93.6460000  87.1180000  76.3990000  92.7630000  87.5270000
  74.2750000  90.5540000  96.4920000  80.1980000  94.8050000  85.5180000
  81.2060000  95.0320000  87.2290000  78.0120000  93.7710000  85.6950000
  78.9910000  94.3220000  84.9330000  80.8670000  95.1970000  84.9680000
  77.2120000  93.4650000  85.2830000  78.8700000  94.3870000  83.9930000
  76.0870000  87.5320000  33.0920000  75.9310000  87.6520000  31.7000000
  75.1060000  86.9750000  33.9230000  77.3180000  88.0200000  33.6960000
  75.1300000  87.3340000  31.3000000  76.9070000  88.2170000  30.8900000
  74.2930000  86.6580000  33.5500000  75.2860000  86.8730000  35.3100000
  78.3100000  88.5920000  32.8640000  77.4980000  87.9180000  35.0840000
  78.1320000  88.6930000  31.4890000  76.7430000  88.3420000  29.4680000
  74.2940000  86.3020000  36.1420000  76.5170000  87.3610000  35.9140000
  79.1160000  88.9130000  33.2530000  78.3110000  88.2360000  35.4560000
  79.1280000  89.2790000  30.6260000  75.9430000  88.0360000  29.0560000
  77.7220000  88.8940000  28.7060000  74.4720000  86.2010000  37.5170000
  73.4880000  85.9800000  35.7530000  76.6730000  87.2420000  37.3060000
  78.9300000  89.3760000  29.2910000  79.9370000  89.6030000  31.0020000
  77.6010000  88.9580000  27.7660000  73.4760000  85.6150000  38.3800000
  75.6970000  86.6760000  38.1160000  77.4740000  87.5590000  37.7070000
  79.5980000  89.7680000  28.7410000  73.6740000  85.5170000  39.7150000
  72.6670000  85.2910000  38.0050000  75.8610000  86.5510000  39.5380000
  74.8820000  86.0000000  40.3000000  73.0060000  85.1260000  40.2650000
  76.6610000  86.8580000  39.9500000  75.0030000  85.9350000  41.2410000
  77.5190000  93.9150000  64.0280000  77.6750000  93.7950000  65.4200000
  78.5000000  94.4720000  63.1970000  76.2880000  93.4270000  63.4240000
  78.4770000  94.1130000  65.8200000  76.7000000  93.2300000  66.2290000
  79.3140000  94.7890000  63.5700000  78.3210000  94.5740000  61.8100000
  75.2960000  92.8550000  64.2560000  76.1090000  93.5290000  62.0360000
  75.4750000  92.7540000  65.6300000  76.8630000  93.1050000  67.6520000
  79.3130000  95.1460000  60.9780000  77.0900000  94.0860000  61.2050000
  74.4910000  92.5340000  63.8660000  75.2950000  93.2120000  61.6640000
  74.4790000  92.1680000  66.4940000  77.6630000  93.4110000  68.0640000
  75.8840000  92.5540000  68.4140000  79.1340000  95.2470000  59.6030000
  80.1180000  95.4670000  61.3670000  76.9340000  94.2060000  59.8140000
  74.6770000  92.0710000  67.8290000  73.6690000  91.8440000  66.1180000
  76.0060000  92.4890000  69.3540000  80.1300000  95.8330000  58.7400000
  77.9090000  94.7710000  59.0040000  76.1320000  93.8880000  59.4130000
  74.0080000  91.6790000  68.3790000  79.9320000  95.9300000  57.4040000
  80.9400000  96.1570000  59.1150000  77.7460000  94.8960000  57.5820000
  78.7250000  95.4470000  56.8200000  80.6010000  96.3220000  56.8550000
  76.9460000  94.5900000  57.1700000  78.6030000  95.5120000  55.8790000
  77.5910000  97.3630000  75.2620000  77.4350000  97.4820000  73.8710000
  76.6100000  96.8060000  76.0930000  78.8220000  97.8510000  75.8670000
  76.6330000  97.1650000  73.4700000  78.4110000  98.0480000  73.0610000
  75.7970000  96.4880000  75.7200000  76.7890000  96.7040000  77.4800000
  79.8140000  98.4220000  75.0350000  79.0010000  97.7490000  77.2540000
  79.6350000  98.5240000  73.6600000  78.2470000  98.1730000  71.6380000
  75.7980000  96.1320000  78.3130000  78.0200000  97.1920000  78.0850000
  80.6190000  98.7440000  75.4240000  79.8150000  98.0660000  77.6270000
  80.6310000  99.1090000  72.7970000  77.4470000  97.8670000  71.2270000
  79.2260000  98.7240000  70.8770000  75.9760000  96.0310000  79.6870000
  74.9920000  95.8110000  77.9230000  78.1770000  97.0720000  79.4760000
  80.4330000  99.2070000  71.4610000  81.4410000  99.4330000  73.1720000
  79.1050000  98.7890000  69.9360000  74.9800000  95.4450000  80.5500000
  77.2010000  96.5070000  80.2860000  78.9780000  97.3900000  79.8770000
  81.1020000  99.5980000  70.9120000  75.1780000  95.3480000  81.8860000
  74.1700000  95.1210000  80.1750000  77.3650000  96.3820000  81.7090000
  76.3860000  95.8310000  82.4710000  74.5100000  94.9560000  82.4350000
  78.1640000  96.6880000  82.1210000  76.5070000  95.7660000  83.4110000
  78.0930000 100.6400000  89.3190000  77.9360000 100.7590000  87.9270000
  77.1110000 100.0820000  90.1500000  79.3230000 101.1280000  89.9230000
  77.1350000 100.4420000  87.5270000  78.9120000 101.3240000  87.1180000
  76.2980000  99.7650000  89.7770000  77.2910000  99.9810000  91.5370000
  80.3150000 101.6990000  89.0910000  79.5030000 101.0260000  91.3110000
  80.1370000 101.8000000  87.7170000  78.7480000 101.4500000  85.6950000
  76.2990000  99.4090000  92.3690000  78.5220000 100.4680000  92.1420000
  81.1210000 102.0200000  89.4810000  80.3160000 101.3430000  91.6830000
  81.1330000 102.3860000  86.8530000  77.9480000 101.1430000  85.2830000
  79.7270000 102.0010000  84.9330000  76.4770000  99.3080000  93.7440000
  75.4930000  99.0880000  91.9800000  78.6780000 100.3490000  93.5330000
  80.9350000 102.4830000  85.5180000  81.9420000 102.7100000  87.2290000
  79.6060000 102.0660000  83.9930000  75.4810000  98.7220000  94.6070000
  77.7020000  99.7840000  94.3430000  79.4790000 100.6670000  93.9340000
  81.6030000 102.8750000  84.9680000  75.6790000  98.6250000  95.9430000
  74.6720000  98.3980000  94.2320000  77.8660000  99.6590000  95.7650000
  76.8870000  99.1070000  96.5270000  75.0110000  98.2330000  96.4920000
  78.6660000  99.9650000  96.1770000  77.0080000  99.0430000  97.4680000
  77.0180000  90.6380000  49.9710000  77.1740000  90.5190000  51.3630000
  77.9990000  91.1950000  49.1400000  75.7870000  90.1500000  49.3670000
  77.9760000  90.8360000  51.7630000  76.1980000  89.9530000  52.1730000
  78.8120000  91.5120000  49.5130000  77.8200000  91.2970000  47.7530000
  74.7950000  89.5780000  50.1990000  75.6080000  90.2520000  47.9790000
  74.9740000  89.4770000  51.5740000  76.3620000  89.8280000  53.5950000
  78.8110000  91.8690000  46.9210000  76.5890000  90.8090000  47.1490000
  73.9900000  89.2570000  49.8100000  74.7940000  89.9350000  47.6070000
  73.9780000  88.8920000  52.4370000  77.1620000  90.1340000  54.0070000
  75.3830000  89.2770000  54.3570000  78.6330000  91.9700000  45.5460000
  79.6170000  92.1900000  47.3100000  76.4320000  90.9290000  45.7570000
  74.1760000  88.7940000  53.7720000  73.1680000  88.5680000  52.0610000
  75.5040000  89.2120000  55.2970000  79.6290000  92.5560000  44.6830000
  77.4080000  91.4940000  44.9470000  75.6310000  90.6110000  45.3560000
  73.5070000  88.4030000  54.3220000  79.4310000  92.6530000  43.3480000
  80.4390000  92.8800000  45.0580000  77.2440000  91.6190000  43.5250000
  78.2230000  92.1700000  42.7630000  80.0990000  93.0450000  42.7980000
  76.4450000  91.3130000  43.1130000  78.1020000  92.2350000  41.8220000
  67.7240000   4.1930000   4.9780000  67.5670000   4.3120000   3.5870000
  66.7430000   3.6360000   5.8090000  68.9550000   4.6810000   5.5830000
  66.7660000   3.9950000   3.1860000  68.5430000   4.8780000   2.7770000
  65.9290000   3.3180000   5.4360000  66.9220000   3.5340000   7.1960000
  69.9460000   5.2520000   4.7500000  69.1340000   4.5790000   6.9700000
  69.7680000   5.3530000   3.3760000  68.3790000   5.0030000   1.3540000
  65.9300000   2.9620000   8.0280000  68.1530000   4.0220000   7.8010000
  70.7520000   5.5730000   5.1400000  69.9470000   4.8960000   7.3430000
  70.7640000   5.9390000   2.5130000  67.5800000   4.6960000   0.9420000
  69.3580000   5.5540000   0.5920000  66.1090000   2.8610000   9.4030000
  65.1250000   2.6410000   7.6390000  68.3090000   3.9020000   9.1920000
  70.5660000   6.0370000   1.1770000  71.5740000   6.2630000   2.8880000
  69.2370000   5.6190000  -0.3480000  65.1130000   2.2750000  10.2660000
  67.3330000   3.3370000  10.0020000  69.1110000   4.2200000   9.5930000
  71.2340000   6.4280000   0.6280000  65.3110000   2.1780000  11.6020000
  64.3030000   1.9510000   9.8910000  67.4970000   3.2120000  11.4250000
  66.5180000   2.6600000  12.1860000  64.6420000   1.7860000  12.1510000
  68.2970000   3.5180000  11.8360000  66.6390000   2.5960000  13.1270000
  69.7290000  17.3000000  61.2050000  69.5720000  17.4200000  59.8140000
  68.7480000  16.7430000  62.0360000  70.9600000  17.7880000  61.8100000
  68.7710000  17.1020000  59.4130000  70.5480000  17.9850000  59.0040000
  67.9340000  16.4260000  61.6640000  68.9270000  16.6410000  63.4240000
  71.9520000  18.3600000  60.9780000  71.1390000  17.6860000  63.1970000
  71.7730000  18.4610000  59.6030000  70.3840000  18.1100000  57.5820000
  67.9350000  16.0690000  64.2560000  70.1580000  17.1290000  64.0280000
  72.7570000  18.6810000  61.3670000  71.9520000  18.0030000  63.5700000
  72.7690000  19.0470000  58.7400000  69.5850000  17.8040000  57.1700000
  71.3630000  18.6610000  56.8200000  68.1140000  15.9680000  65.6300000
  67.1300000  15.7480000  63.8660000  70.3140000  17.0090000  65.4200000
  72.5710000  19.1440000  57.4040000  73.5790000  19.3710000  59.1150000
  71.2420000  18.7260000  55.8790000  67.1180000  15.3820000  66.4940000
  69.3380000  16.4440000  66.2290000  71.1160000  17.3270000  65.8200000
  73.2390000  19.5360000  56.8550000  67.3160000  15.2850000  67.8290000
  66.3080000  15.0580000  66.1180000  69.5020000  16.3190000  67.6520000
  68.5230000  15.7680000  68.4140000  66.6470000  14.8930000  68.3790000
  70.3020000  16.6250000  68.0640000  68.6440000  15.7030000  69.3540000
  69.2280000  14.0230000  47.1490000  69.0710000  14.1430000  45.7570000
  68.2460000  13.4660000  47.9790000  70.4580000  14.5110000  47.7530000
  68.2700000  13.8250000  45.3560000  70.0470000  14.7080000  44.9470000
  67.4330000  13.1490000  47.6070000  68.4260000  13.3640000  49.3670000
  71.4500000  15.0830000  46.9210000  70.6380000  14.4090000  49.1400000
  71.2720000  15.1840000  45.5460000  69.8830000  14.8330000  43.5250000
  67.4340000  12.7920000  50.1990000  69.6570000  13.8520000  49.9710000
  72.2560000  15.4040000  47.3100000  71.4510000  14.7270000  49.5130000
  72.2680000  15.7700000  44.6830000  69.0830000  14.5270000  43.1130000
  70.8620000  15.3840000  42.7630000  67.6130000  12.6910000  51.5740000
  66.6290000  12.4710000  49.8100000  69.8130000  13.7330000  51.3630000
  72.0700000  15.8670000  43.3480000  73.0770000  16.0940000  45.0580000
  70.7410000  15.4490000  41.8220000  66.6170000  12.1060000  52.4370000
  68.8370000  13.1670000  52.1730000  70.6140000  14.0500000  51.7630000
  72.7380000  16.2590000  42.7980000  66.8140000  12.0080000  53.7720000
  65.8070000  11.7820000  52.0610000  69.0010000  13.0420000  53.5950000
  68.0220000  12.4910000  54.3570000  66.1460000  11.6170000  54.3220000
  69.8010000  13.3480000  54.0070000  68.1430000  12.4260000  55.2970000
  68.9610000  15.1480000  19.0350000  68.8050000  15.2680000  17.6430000
  67.9800000  14.5910000  19.8660000  70.1920000  15.6360000  19.6390000
  68.0030000  14.9500000  17.2430000  69.7810000  15.8330000  16.8340000
  67.1660000  14.2740000  19.4930000  68.1590000  14.4890000  21.2530000
  71.1840000  16.2080000  18.8070000  70.3710000  15.5340000  21.0270000
  71.0050000  16.3090000  17.4320000  69.6170000  15.9580000  15.4110000
  67.1670000  13.9170000  22.0850000  69.3900000  14.9770000  21.8580000
  71.9890000  16.5290000  19.1970000  71.1850000  15.8510000  21.3990000
  72.0010000  16.8950000  16.5690000  68.8170000  15.6520000  14.9990000
  70.5960000  16.5090000  14.6490000  67.3460000  13.8160000  23.4600000
  66.3620000  13.5960000  21.6960000  69.5470000  14.8580000  23.2490000
  71.8030000  16.9920000  15.2340000  72.8110000  17.2190000  16.9450000
  70.4750000  16.5740000  13.7090000  66.3500000  13.2300000  24.3230000
  68.5710000  14.2920000  24.0590000  70.3480000  15.1750000  23.6500000
  72.4720000  17.3840000  14.6840000  66.5480000  13.1330000  25.6590000
  65.5400000  12.9060000  23.9480000  68.7340000  14.1670000  25.4810000
  67.7560000  13.6160000  26.2430000  65.8800000  12.7420000  26.2080000
  69.5340000  14.4730000  25.8930000  67.8770000  13.5510000  27.1840000
  69.4620000  18.4250000  33.0920000  69.3060000  18.5450000  31.7000000
  68.4810000  17.8680000  33.9230000  70.6930000  18.9130000  33.6960000
  68.5050000  18.2270000  31.3000000  70.2820000  19.1100000  30.8900000
  67.6680000  17.5510000  33.5500000  68.6610000  17.7660000  35.3100000
  71.6850000  19.4850000  32.8640000  70.8730000  18.8110000  35.0840000
  71.5060000  19.5860000  31.4890000  70.1180000  19.2350000  29.4680000
  67.6690000  17.1940000  36.1420000  69.8910000  18.2540000  35.9140000
  72.4900000  19.8060000  33.2530000  71.6860000  19.1280000  35.4560000
  72.5020000  20.1720000  30.6260000  69.3180000  18.9290000  29.0560000
  71.0970000  19.7860000  28.7060000  67.8470000  17.0930000  37.5170000
  66.8630000  16.8730000  35.7530000  70.0480000  18.1340000  37.3060000
  72.3040000  20.2690000  29.2910000  73.3120000  20.4960000  31.0020000
  70.9760000  19.8510000  27.7660000  66.8510000  16.5070000  38.3800000
  69.0720000  17.5690000  38.1160000  70.8490000  18.4520000  37.7070000
  72.9730000  20.6600000  28.7410000  67.0490000  16.4100000  39.7150000
  66.0420000  16.1830000  38.0050000  69.2360000  17.4440000  39.5380000
  68.2570000  16.8930000  40.3000000  66.3810000  16.0180000  40.2650000
  70.0360000  17.7500000  39.9500000  68.3780000  16.8280000  41.2410000
  69.9640000  21.7020000  47.1490000  69.8070000  21.8210000  45.7570000
  68.9820000  21.1450000  47.9790000  71.1940000  22.1900000  47.7530000
  69.0060000  21.5040000  45.3560000  70.7830000  22.3870000  44.9470000
  68.1690000  20.8270000  47.6070000  69.1620000  21.0430000  49.3670000
  72.1860000  22.7610000  46.9210000  71.3740000  22.0880000  49.1400000
  72.0080000  22.8630000  45.5460000  70.6190000  22.5120000  43.5250000
  68.1700000  20.4710000  50.1990000  70.3930000  21.5310000  49.9710000
  72.9920000  23.0830000  47.3100000  72.1870000  22.4050000  49.5130000
  73.0040000  23.4480000  44.6830000  69.8200000  22.2050000  43.1130000
  71.5980000  23.0630000  42.7630000  68.3490000  20.3700000  51.5740000
  67.3650000  20.1500000  49.8100000  70.5490000  21.4110000  51.3630000
  72.8060000  23.5460000  43.3480000  73.8140000  23.7720000  45.0580000
  71.4770000  23.1280000  41.8220000  67.3530000  19.7840000  52.4370000
  69.5730000  20.8460000  52.1730000  71.3500000  21.7290000  51.7630000
  73.4740000  23.9370000  42.7980000  67.5510000  19.6870000  53.7720000
  66.5430000  19.4600000  52.0610000  69.7370000  20.7210000  53.5950000
  68.7580000  20.1700000  54.3570000  66.8820000  19.2950000  54.3220000
  70.5370000  21.0270000  54.0070000  68.8790000  20.1050000  55.2970000
  68.4600000  11.8710000   4.9780000  68.3030000  11.9910000   3.5870000
  67.4790000  11.3140000   5.8090000  69.6910000  12.3590000   5.5830000
  67.5020000  11.6730000   3.1860000  69.2790000  12.5560000   2.7770000
  66.6650000  10.9970000   5.4360000  67.6580000  11.2120000   7.1960000
  70.6830000  12.9310000   4.7500000  69.8700000  12.2570000   6.9700000
  70.5040000  13.0320000   3.3760000  69.1160000  12.6810000   1.3540000
  66.6660000  10.6410000   8.0280000  68.8890000  11.7000000   7.8010000
  71.4880000  13.2520000   5.1400000  70.6840000  12.5750000   7.3430000
  71.5000000  13.6180000   2.5130000  68.3160000  12.3750000   0.9420000
  70.0950000  13.2320000   0.5920000  66.8450000  10.5390000   9.4030000
  65.8610000  10.3190000   7.6390000  69.0450000  11.5810000   9.1920000
  71.3020000  13.7150000   1.1770000  72.3100000  13.9420000   2.8880000
  69.9730000  13.2970000  -0.3480000  65.8490000   9.9540000  10.2660000
  68.0690000  11.0150000  10.0020000  69.8470000  11.8980000   9.5930000
  71.9700000  14.1070000   0.6280000  66.0470000   9.8560000  11.6020000
  65.0390000   9.6300000   9.8910000  68.2330000  10.8900000  11.4250000
  67.2540000  10.3390000  12.1860000  65.3780000   9.4650000  12.1510000
  69.0330000  11.1970000  11.8360000  67.3750000  10.2740000  13.1270000
  70.8940000  24.8070000  64.0280000  71.0500000  24.6880000  65.4200000
  71.8750000  25.3650000  63.1970000  69.6630000  24.3190000  63.4240000
  71.8520000  25.0060000  65.8200000  70.0740000  24.1230000  66.2290000
  72.6890000  25.6820000  63.5700000  71.6960000  25.4670000  61.8100000
  68.6710000  23.7480000  64.2560000  69.4840000  24.4210000  62.0360000
  68.8500000  23.6470000  65.6300000  70.2380000  23.9970000  67.6520000
  72.6880000  26.0380000  60.9780000  70.4650000  24.9790000  61.2050000
  67.8660000  23.4270000  63.8660000  68.6700000  24.1040000  61.6640000
  67.8540000  23.0610000  66.4940000  71.0380000  24.3040000  68.0640000
  69.2590000  23.4460000  68.4140000  72.5090000  26.1390000  59.6030000
  73.4930000  26.3590000  61.3670000  70.3080000  25.0980000  59.8140000
  68.0520000  22.9640000  67.8290000  67.0440000  22.7370000  66.1180000
  69.3800000  23.3810000  69.3540000  73.5050000  26.7250000  58.7400000
  71.2840000  25.6630000  59.0040000  69.5070000  24.7810000  59.4130000
  67.3830000  22.5720000  68.3790000  73.3070000  26.8220000  57.4040000
  74.3150000  27.0490000  59.1150000  71.1210000  25.7890000  57.5820000
  72.1000000  26.3400000  56.8200000  73.9750000  27.2140000  56.8550000
  70.3210000  25.4820000  57.1700000  71.9780000  26.4050000  55.8790000
  71.3950000  28.0840000  78.0850000  71.5520000  27.9650000  79.4760000
  72.3760000  28.6420000  77.2540000  70.1640000  27.5960000  77.4800000
  72.3530000  28.2820000  79.8770000  70.5760000  27.4000000  80.2860000
  73.1900000  28.9590000  77.6270000  72.1970000  28.7440000  75.8670000
  69.1720000  27.0250000  78.3130000  69.9850000  27.6980000  76.0930000
  69.3510000  26.9240000  79.6870000  70.7400000  27.2740000  81.7090000
  73.1890000  29.3150000  75.0350000  70.9660000  28.2560000  75.2620000
  68.3670000  26.7040000  77.9230000  69.1720000  27.3810000  75.7200000
  68.3550000  26.3380000  80.5500000  71.5390000  27.5810000  82.1210000
  69.7610000  26.7230000  82.4710000  73.0100000  29.4160000  73.6600000
  73.9940000  29.6360000  75.4240000  70.8100000  28.3750000  73.8710000
  68.5530000  26.2410000  81.8860000  67.5450000  26.0140000  80.1750000
  69.8820000  26.6580000  83.4110000  74.0060000  30.0020000  72.7970000
  71.7860000  28.9400000  73.0610000  70.0080000  28.0570000  73.4700000
  67.8850000  25.8490000  82.4350000  73.8080000  30.0990000  71.4610000
  74.8160000  30.3260000  73.1720000  71.6220000  29.0660000  71.6380000
  72.6010000  29.6170000  70.8770000  74.4770000  30.4910000  70.9120000
  70.8220000  28.7590000  71.2270000  72.4800000  29.6820000  69.9360000
  71.4670000  31.5320000  89.3190000  71.3110000  31.6520000  87.9270000
  70.4860000  30.9750000  90.1500000  72.6980000  32.0200000  89.9230000
  70.5100000  31.3340000  87.5270000  72.2870000  32.2170000  87.1180000
  69.6730000  30.6580000  89.7770000  70.6660000  30.8730000  91.5370000
  73.6900000  32.5920000  89.0910000  72.8780000  31.9180000  91.3110000
  73.5110000  32.6930000  87.7170000  72.1230000  32.3420000  85.6950000
  69.6740000  30.3020000  92.3690000  71.8960000  31.3610000  92.1420000
  74.4950000  32.9130000  89.4810000  73.6910000  32.2360000  91.6830000
  74.5080000  33.2790000  86.8530000  71.3230000  32.0360000  85.2830000
  73.1020000  32.8930000  84.9330000  69.8520000  30.2000000  93.7440000
  68.8680000  29.9800000  91.9800000  72.0530000  31.2420000  93.5330000
  74.3100000  33.3760000  85.5180000  75.3170000  33.6030000  87.2290000
  72.9810000  32.9580000  83.9930000  68.8560000  29.6150000  94.6070000
  71.0770000  30.6760000  94.3430000  72.8540000  31.5590000  93.9340000
  74.9780000  33.7680000  84.9680000  69.0540000  29.5170000  95.9430000
  68.0470000  29.2910000  94.2320000  71.2410000  30.5510000  95.7650000
  70.2620000  30.0000000  96.5270000  68.3860000  29.1260000  96.4920000
  72.0410000  30.8580000  96.1770000  70.3830000  29.9350000  97.4680000
  69.6970000  22.8270000  19.0350000  69.5410000  22.9460000  17.6430000
  68.7160000  22.2700000  19.8660000  70.9280000  23.3150000  19.6390000
  68.7390000  22.6290000  17.2430000  70.5170000  23.5120000  16.8340000
  67.9030000  21.9520000  19.4930000  68.8950000  22.1680000  21.2530000
  71.9200000  23.8860000  18.8070000  71.1070000  23.2130000  21.0270000
  71.7410000  23.9870000  17.4320000  70.3530000  23.6370000  15.4110000
  67.9040000  21.5960000  22.0850000  70.1260000  22.6560000  21.8580000
  72.7250000  24.2080000  19.1970000  71.9210000  23.5300000  21.3990000
  72.7370000  24.5730000  16.5690000  69.5530000  23.3300000  14.9990000
  71.3320000  24.1880000  14.6490000  68.0820000  21.4950000  23.4600000
  67.0980000  21.2750000  21.6960000  70.2830000  22.5360000  23.2490000
  72.5390000  24.6710000  15.2340000  73.5470000  24.8970000  16.9450000
  71.2110000  24.2530000  13.7090000  67.0860000  20.9090000  24.3230000
  69.3070000  21.9710000  24.0590000  71.0840000  22.8540000  23.6500000
  73.2080000  25.0620000  14.6840000  67.2840000  20.8120000  25.6590000
  66.2760000  20.5850000  23.9480000  69.4710000  21.8460000  25.4810000
  68.4920000  21.2940000  26.2430000  66.6160000  20.4200000  26.2080000
  70.2700000  22.1520000  25.8930000  68.6130000  21.2300000  27.1840000
  70.6280000  25.9320000  35.9140000  70.7840000  25.8130000  37.3060000
  71.6090000  26.4900000  35.0840000  69.3970000  25.4440000  35.3100000
  71.5850000  26.1310000  37.7070000  69.8080000  25.2480000  38.1160000
  72.4220000  26.8070000  35.4560000  71.4290000  26.5920000  33.6960000
  68.4050000  24.8730000  36.1420000  69.2170000  25.5460000  33.9230000
  68.5830000  24.7720000  37.5170000  69.9720000  25.1220000  39.5380000
  72.4210000  27.1630000  32.8640000  70.1990000  26.1040000  33.0920000
  67.6000000  24.5520000  35.7530000  68.4040000  25.2290000  33.5500000
  67.5870000  24.1860000  38.3800000  70.7720000  25.4290000  39.9500000
  68.9930000  24.5710000  40.3000000  72.2430000  27.2640000  31.4890000
  73.2270000  27.4840000  33.2530000  70.0420000  26.2230000  31.7000000
  67.7850000  24.0890000  39.7150000  66.7780000  23.8620000  38.0050000
  69.1140000  24.5060000  41.2410000  73.2390000  27.8500000  30.6260000
  71.0180000  26.7880000  30.8900000  69.2410000  25.9050000  31.3000000
  67.1170000  23.6970000  40.2650000  73.0410000  27.9470000  29.2910000
  74.0480000  28.1740000  31.0020000  70.8540000  26.9140000  29.4680000
  71.8330000  27.4650000  28.7060000  73.7090000  28.3390000  28.7410000
  70.0540000  26.6070000  29.0560000  71.7120000  27.5300000  27.7660000
  69.1960000  19.5500000   4.9780000  69.0400000  19.6690000   3.5870000
  68.2150000  18.9930000   5.8090000  70.4270000  20.0380000   5.5830000
  68.2380000  19.3520000   3.1860000  70.0150000  20.2350000   2.7770000
  67.4010000  18.6760000   5.4360000  68.3940000  18.8910000   7.1960000
  71.4190000  20.6100000   4.7500000  70.6060000  19.9360000   6.9700000
  71.2400000  20.7110000   3.3760000  69.8520000  20.3600000   1.3540000
  67.4020000  18.3190000   8.0280000  69.6250000  19.3790000   7.8010000
  72.2240000  20.9310000   5.1400000  71.4200000  20.2530000   7.3430000
  72.2360000  21.2960000   2.5130000  69.0520000  20.0540000   0.9420000
  70.8310000  20.9110000   0.5920000  67.5810000  18.2180000   9.4030000
  66.5970000  17.9980000   7.6390000  69.7810000  19.2590000   9.1920000
  72.0380000  21.3940000   1.1770000  73.0460000  21.6200000   2.8880000
  70.7090000  20.9760000  -0.3480000  66.5850000  17.6320000  10.2660000
  68.8060000  18.6940000  10.0020000  70.5830000  19.5770000   9.5930000
  72.7070000  21.7850000   0.6280000  66.7830000  17.5350000  11.6020000
  65.7750000  17.3080000   9.8910000  68.9690000  18.5690000  11.4250000
  67.9900000  18.0180000  12.1860000  66.1140000  17.1430000  12.1510000
  69.7690000  18.8750000  11.8360000  68.1120000  17.9530000  13.1270000
  71.4360000  37.0590000  47.1490000  71.2790000  37.1790000  45.7570000
  70.4550000  36.5020000  47.9790000  72.6670000  37.5470000  47.7530000
  70.4780000  36.8610000  45.3560000  72.2550000  37.7440000  44.9470000
  69.6410000  36.1850000  47.6070000  70.6340000  36.4000000  49.3670000
  73.6590000  38.1190000  46.9210000  72.8460000  37.4450000  49.1400000
  73.4800000  38.2200000  45.5460000  72.0920000  37.8690000  43.5250000
  69.6420000  35.8280000  50.1990000  71.8650000  36.8880000  49.9710000
  74.4640000  38.4400000  47.3100000  73.6600000  37.7620000  49.5130000
  74.4760000  38.8060000  44.6830000  71.2920000  37.5630000  43.1130000
  73.0710000  38.4200000  42.7630000  69.8210000  35.7270000  51.5740000
  68.8370000  35.5070000  49.8100000  72.0210000  36.7680000  51.3630000
  74.2780000  38.9030000  43.3480000  75.2860000  39.1300000  45.0580000
  72.9490000  38.4850000  41.8220000  68.8250000  35.1410000  52.4370000
  71.0450000  36.2030000  52.1730000  72.8230000  37.0860000  51.7630000
  74.9460000  39.2950000  42.7980000  69.0230000  35.0440000  53.7720000
  68.0150000  34.8170000  52.0610000  71.2090000  36.0780000  53.5950000
  70.2300000  35.5270000  54.3570000  68.3540000  34.6520000  54.3220000
  72.0090000  36.3840000  54.0070000  70.3510000  35.4620000  55.2970000
  72.9080000  52.4160000  47.1490000  72.7520000  52.5360000  45.7570000
  71.9270000  51.8590000  47.9790000  74.1390000  52.9040000  47.7530000
  71.9500000  52.2180000  45.3560000  73.7280000  53.1010000  44.9470000
  71.1130000  51.5420000  47.6070000  72.1060000  51.7570000  49.3670000
  75.1310000  53.4760000  46.9210000  74.3180000  52.8020000  49.1400000
  74.9520000  53.5770000  45.5460000  73.5640000  53.2260000  43.5250000
  71.1140000  51.1850000  50.1990000  73.3370000  52.2450000  49.9710000
  75.9360000  53.7970000  47.3100000  75.1320000  53.1200000  49.5130000
  75.9480000  54.1630000  44.6830000  72.7640000  52.9200000  43.1130000
  74.5430000  53.7770000  42.7630000  71.2930000  51.0840000  51.5740000
  70.3090000  50.8640000  49.8100000  73.4940000  52.1260000  51.3630000
  75.7500000  54.2600000  43.3480000  76.7580000  54.4870000  45.0580000
  74.4220000  53.8420000  41.8220000  70.2970000  50.4990000  52.4370000
  72.5180000  51.5600000  52.1730000  74.2950000  52.4430000  51.7630000
  76.4190000  54.6520000  42.7980000  70.4950000  50.4010000  53.7720000
  69.4870000  50.1750000  52.0610000  72.6810000  51.4350000  53.5950000
  71.7030000  50.8840000  54.3570000  69.8270000  50.0100000  54.3220000
  73.4810000  51.7410000  54.0070000  71.8240000  50.8190000  55.2970000
  72.6420000  53.5410000  19.0350000  72.4850000  53.6610000  17.6430000
  71.6610000  52.9840000  19.8660000  73.8730000  54.0290000  19.6390000
  71.6840000  53.3430000  17.2430000  73.4610000  54.2260000  16.8340000
  70.8470000  52.6670000  19.4930000  71.8400000  52.8820000  21.2530000
  74.8640000  54.6010000  18.8070000  74.0520000  53.9270000  21.0270000
  74.6860000  54.7020000  17.4320000  73.2970000  54.3510000  15.4110000
  70.8480000  52.3100000  22.0850000  73.0710000  53.3700000  21.8580000
  75.6700000  54.9220000  19.1970000  74.8650000  54.2440000  21.3990000
  75.6820000  55.2880000  16.5690000  72.4980000  54.0450000  14.9990000
  74.2760000  54.9020000  14.6490000  71.0270000  52.2090000  23.4600000
  70.0430000  51.9890000  21.6960000  73.2270000  53.2510000  23.2490000
  75.4840000  55.3850000  15.2340000  76.4920000  55.6120000  16.9450000
  74.1550000  54.9670000  13.7090000  70.0310000  51.6230000  24.3230000
  72.2510000  52.6850000  24.0590000  74.0290000  53.5680000  23.6500000
  76.1520000  55.7770000  14.6840000  70.2290000  51.5260000  25.6590000
  69.2210000  51.2990000  23.9480000  72.4150000  52.5600000  25.4810000
  71.4360000  52.0090000  26.2430000  69.5600000  51.1350000  26.2080000
  73.2150000  52.8660000  25.8930000  71.5570000  51.9440000  27.1840000
  72.1400000  50.2640000   4.9780000  71.9840000  50.3840000   3.5870000
  71.1590000  49.7070000   5.8090000  73.3710000  50.7520000   5.5830000
  71.1830000  50.0660000   3.1860000  72.9600000  50.9490000   2.7770000
  70.3460000  49.3900000   5.4360000  71.3390000  49.6050000   7.1960000
  74.3630000  51.3240000   4.7500000  73.5510000  50.6500000   6.9700000
  74.1850000  51.4250000   3.3760000  72.7960000  51.0740000   1.3540000
  70.3470000  49.0340000   8.0280000  72.5700000  50.0930000   7.8010000
  75.1690000  51.6450000   5.1400000  74.3640000  50.9680000   7.3430000
  75.1810000  52.0110000   2.5130000  71.9960000  50.7680000   0.9420000
  73.7750000  51.6250000   0.5920000  70.5250000  48.9320000   9.4030000
  69.5410000  48.7120000   7.6390000  72.7260000  49.9740000   9.1920000
  74.9830000  52.1080000   1.1770000  75.9900000  52.3350000   2.8880000
  73.6540000  51.6900000  -0.3480000  69.5290000  48.3470000  10.2660000
  71.7500000  49.4080000  10.0020000  73.5270000  50.2910000   9.5930000
  75.6510000  52.5000000   0.6280000  69.7270000  48.2490000  11.6020000
  68.7200000  48.0230000   9.8910000  71.9140000  49.2830000  11.4250000
  70.9350000  48.7320000  12.1860000  69.0590000  47.8580000  12.1510000
  72.7140000  49.5900000  11.8360000  71.0560000  48.6670000  13.1270000
  75.5770000  69.7540000  92.1420000  75.7340000  69.6350000  93.5330000
  76.5580000  70.3110000  91.3110000  74.3460000  69.2660000  91.5370000
  76.5350000  69.9520000  93.9340000  74.7580000  69.0690000  94.3430000
  77.3720000  70.6290000  91.6830000  76.3790000  70.4130000  89.9230000
  73.3540000  68.6950000  92.3690000  74.1670000  69.3680000  90.1500000
  73.5330000  68.5930000  93.7440000  74.9210000  68.9440000  95.7650000
  77.3710000  70.9850000  89.0910000  75.1480000  69.9250000  89.3190000
  72.5490000  68.3730000  91.9800000  73.3530000  69.0510000  89.7770000
  72.5370000  68.0080000  94.6070000  75.7210000  69.2510000  96.1770000
  73.9420000  68.3930000  96.5270000  77.1920000  71.0860000  87.7170000
  78.1760000  71.3060000  89.4810000  74.9920000  70.0450000  87.9270000
  72.7350000  67.9100000  95.9430000  71.7270000  67.6840000  94.2320000
  74.0640000  68.3280000  97.4680000  78.1880000  71.6720000  86.8530000
  75.9680000  70.6100000  87.1180000  74.1900000  69.7270000  87.5270000
  72.0670000  67.5190000  96.4920000  77.9900000  71.7690000  85.5180000
  78.9980000  71.9960000  87.2290000  75.8040000  70.7350000  85.6950000
  76.7830000  71.2860000  84.9330000  78.6590000  72.1610000  84.9680000
  75.0040000  70.4290000  85.2830000  76.6620000  71.3510000  83.9930000
  73.8070000  61.0490000  21.8580000  73.9630000  60.9290000  23.2490000
  74.7880000  61.6060000  21.0270000  72.5760000  60.5610000  21.2530000
  74.7650000  61.2470000  23.6500000  72.9870000  60.3640000  24.0590000
  75.6020000  61.9230000  21.3990000  74.6090000  61.7080000  19.6390000
  71.5840000  59.9890000  22.0850000  72.3970000  60.6630000  19.8660000
  71.7630000  59.8880000  23.4600000  73.1510000  60.2390000  25.4810000
  75.6010000  62.2790000  18.8070000  73.3780000  61.2200000  19.0350000
  70.7790000  59.6680000  21.6960000  71.5830000  60.3450000  19.4930000
  70.7670000  59.3020000  24.3230000  73.9510000  60.5450000  25.8930000
  72.1720000  59.6870000  26.2430000  75.4220000  62.3800000  17.4320000
  76.4060000  62.6000000  19.1970000  73.2210000  61.3390000  17.6430000
  70.9650000  59.2050000  25.6590000  69.9570000  58.9780000  23.9480000
  72.2930000  59.6230000  27.1840000  76.4180000  62.9660000  16.5690000
  74.1970000  61.9050000  16.8340000  72.4200000  61.0220000  17.2430000
  70.2960000  58.8130000  26.2080000  76.2200000  63.0640000  15.2340000
  77.2280000  63.2900000  16.9450000  74.0340000  62.0300000  15.4110000
  75.0120000  62.5810000  14.6490000  76.8880000  63.4550000  14.6840000
  73.2340000  61.7230000  14.9990000  74.8910000  62.6460000  13.7090000
  74.3800000  67.7730000  47.1490000  74.2240000  67.8930000  45.7570000
  73.3990000  67.2160000  47.9790000  75.6110000  68.2610000  47.7530000
  73.4230000  67.5750000  45.3560000  75.2000000  68.4580000  44.9470000
  72.5860000  66.8990000  47.6070000  73.5790000  67.1140000  49.3670000
  76.6030000  68.8330000  46.9210000  75.7910000  68.1600000  49.1400000
  76.4240000  68.9340000  45.5460000  75.0360000  68.5830000  43.5250000
  72.5870000  66.5430000  50.1990000  74.8090000  67.6020000  49.9710000
  77.4080000  69.1540000  47.3100000  76.6040000  68.4770000  49.5130000
  77.4200000  69.5200000  44.6830000  74.2360000  68.2770000  43.1130000
  76.0150000  69.1350000  42.7630000  72.7650000  66.4420000  51.5740000
  71.7810000  66.2220000  49.8100000  74.9660000  67.4830000  51.3630000
  77.2220000  69.6170000  43.3480000  78.2300000  69.8440000  45.0580000
  75.8940000  69.1990000  41.8220000  71.7690000  65.8560000  52.4370000
  73.9900000  66.9170000  52.1730000  75.7670000  67.8000000  51.7630000
  77.8910000  70.0090000  42.7980000  71.9670000  65.7590000  53.7720000
  70.9600000  65.5320000  52.0610000  74.1540000  66.7920000  53.5950000
  73.1750000  66.2410000  54.3570000  71.2990000  65.3670000  54.3220000
  74.9540000  67.0990000  54.0070000  73.2960000  66.1760000  55.2970000
  76.3130000  77.4330000  92.1420000  76.4700000  77.3130000  93.5330000
  77.2940000  77.9900000  91.3110000  75.0820000  76.9450000  91.5370000
  77.2710000  77.6310000  93.9340000  75.4940000  76.7480000  94.3430000
  78.1080000  78.3070000  91.6830000  77.1150000  78.0920000  89.9230000
  74.0900000  76.3730000  92.3690000  74.9030000  77.0470000  90.1500000
  74.2690000  76.2720000  93.7440000  75.6580000  76.6230000  95.7650000
  78.1070000  78.6640000  89.0910000  75.8840000  77.6040000  89.3190000
  73.2850000  76.0520000  91.9800000  74.0890000  76.7290000  89.7770000
  73.2730000  75.6860000  94.6070000  76.4570000  76.9290000  96.1770000
  74.6790000  76.0720000  96.5270000  77.9280000  78.7650000  87.7170000
  78.9120000  78.9850000  89.4810000  75.7280000  77.7230000  87.9270000
  73.4710000  75.5890000  95.9430000  72.4630000  75.3620000  94.2320000
  74.8000000  76.0070000  97.4680000  78.9240000  79.3500000  86.8530000
  76.7040000  78.2890000  87.1180000  74.9260000  77.4060000  87.5270000
  72.8030000  75.1970000  96.4920000  78.7260000  79.4480000  85.5180000
  79.7340000  79.6740000  87.2290000  76.5400000  78.4140000  85.6950000
  77.5190000  78.9650000  84.9330000  79.3950000  79.8390000  84.9680000
  75.7400000  78.1080000  85.2830000  77.3980000  79.0300000  83.9930000
  72.8770000  57.9430000   4.9780000  72.7200000  58.0620000   3.5870000
  71.8950000  57.3860000   5.8090000  74.1070000  58.4310000   5.5830000
  71.9190000  57.7450000   3.1860000  73.6960000  58.6280000   2.7770000
  71.0820000  57.0680000   5.4360000  72.0750000  57.2840000   7.1960000
  75.0990000  59.0030000   4.7500000  74.2870000  58.3290000   6.9700000
  74.9210000  59.1040000   3.3760000  73.5320000  58.7530000   1.3540000
  71.0830000  56.7120000   8.0280000  73.3060000  57.7720000   7.8010000
  75.9050000  59.3240000   5.1400000  75.1000000  58.6460000   7.3430000
  75.9170000  59.6890000   2.5130000  72.7320000  58.4470000   0.9420000
  74.5110000  59.3040000   0.5920000  71.2620000  56.6110000   9.4030000
  70.2780000  56.3910000   7.6390000  73.4620000  57.6520000   9.1920000
  75.7190000  59.7870000   1.1770000  76.7260000  60.0130000   2.8880000
  74.3900000  59.3690000  -0.3480000  70.2660000  56.0250000  10.2660000
  72.4860000  57.0870000  10.0020000  74.2630000  57.9700000   9.5930000
  76.3870000  60.1780000   0.6280000  70.4640000  55.9280000  11.6020000
  69.4560000  55.7010000   9.8910000  72.6500000  56.9620000  11.4250000
  71.6710000  56.4110000  12.1860000  69.7950000  55.5360000  12.1510000
  73.4500000  57.2680000  11.8360000  71.7920000  56.3460000  13.1270000
  73.6130000  65.6220000   4.9780000  73.4560000  65.7410000   3.5870000
  72.6320000  65.0640000   5.8090000  74.8440000  66.1100000   5.5830000
  72.6550000  65.4230000   3.1860000  74.4320000  66.3060000   2.7770000
  71.8180000  64.7470000   5.4360000  72.8110000  64.9620000   7.1960000
  75.8350000  66.6810000   4.7500000  75.0230000  66.0080000   6.9700000
  75.6570000  66.7820000   3.3760000  74.2680000  66.4320000   1.3540000
  71.8190000  64.3910000   8.0280000  74.0420000  65.4500000   7.8010000
  76.6410000  67.0020000   5.1400000  75.8360000  66.3250000   7.3430000
  76.6530000  67.3680000   2.5130000  73.4690000  66.1250000   0.9420000
  75.2470000  66.9830000   0.5920000  71.9980000  64.2900000   9.4030000
  71.0140000  64.0700000   7.6390000  74.1980000  65.3310000   9.1920000
  76.4550000  67.4650000   1.1770000  77.4630000  67.6920000   2.8880000
  75.1260000  67.0480000  -0.3480000  71.0020000  63.7040000  10.2660000
  73.2220000  64.7660000  10.0020000  75.0000000  65.6480000   9.5930000
  77.1230000  67.8570000   0.6280000  71.2000000  63.6070000  11.6020000
  70.1920000  63.3800000   9.8910000  73.3860000  64.6400000  11.4250000
  72.4070000  64.0890000  12.1860000  70.5310000  63.2150000  12.1510000
  74.1860000  64.9470000  11.8360000  72.5280000  64.0240000  13.1270000
  74.1140000  68.8980000  19.0350000  73.9580000  69.0180000  17.6430000
  73.1330000  68.3410000  19.8660000  75.3450000  69.3860000  19.6390000
  73.1560000  68.7000000  17.2430000  74.9330000  69.5830000  16.8340000
  72.3190000  68.0240000  19.4930000  73.3120000  68.2390000  21.2530000
  76.3370000  69.9580000  18.8070000  75.5240000  69.2840000  21.0270000
  76.1580000  70.0590000  17.4320000  74.7700000  69.7080000  15.4110000
  72.3200000  67.6680000  22.0850000  74.5430000  68.7270000  21.8580000
  77.1420000  70.2790000  19.1970000  76.3380000  69.6020000  21.3990000
  77.1540000  70.6450000  16.5690000  73.9700000  69.4020000  14.9990000
  75.7490000  70.2590000  14.6490000  72.4990000  67.5670000  23.4600000
  71.5150000  67.3460000  21.6960000  74.6990000  68.6080000  23.2490000
  76.9560000  70.7420000  15.2340000  77.9640000  70.9690000  16.9450000
  75.6270000  70.3240000  13.7090000  71.5030000  66.9810000  24.3230000
  73.7240000  68.0420000  24.0590000  75.5010000  68.9250000  23.6500000
  77.6240000  71.1340000  14.6840000  71.7010000  66.8830000  25.6590000
  70.6930000  66.6570000  23.9480000  73.8870000  67.9170000  25.4810000
  72.9080000  67.3660000  26.2430000  71.0320000  66.4920000  26.2080000
  74.6870000  68.2240000  25.8930000  73.0290000  67.3010000  27.1840000
  77.0490000  85.1110000  92.1420000  77.2060000  84.9920000  93.5330000
  78.0300000  85.6690000  91.3110000  75.8180000  84.6230000  91.5370000
  78.0070000  85.3090000  93.9340000  76.2300000  84.4270000  94.3430000
  78.8440000  85.9860000  91.6830000  77.8510000  85.7710000  89.9230000
  74.8270000  84.0520000  92.3690000  75.6390000  84.7250000  90.1500000
  75.0050000  83.9510000  93.7440000  76.3940000  84.3010000  95.7650000
  78.8430000  86.3420000  89.0910000  76.6200000  85.2830000  89.3190000
  74.0210000  83.7310000  91.9800000  74.8260000  84.4080000  89.7770000
  74.0090000  83.3650000  94.6070000  77.1930000  84.6080000  96.1770000
  75.4150000  83.7500000  96.5270000  78.6640000  86.4430000  87.7170000
  79.6480000  86.6630000  89.4810000  76.4640000  85.4020000  87.9270000
  74.2070000  83.2680000  95.9430000  73.1990000  83.0410000  94.2320000
  75.5360000  83.6850000  97.4680000  79.6600000  87.0290000  86.8530000
  77.4400000  85.9670000  87.1180000  75.6620000  85.0840000  87.5270000
  73.5390000  82.8760000  96.4920000  79.4620000  87.1260000  85.5180000
  80.4700000  87.3530000  87.2290000  77.2760000  86.0930000  85.6950000
  78.2550000  86.6440000  84.9330000  80.1310000  87.5180000  84.9680000
  76.4760000  85.7860000  85.2830000  78.1340000  86.7090000  83.9930000
  74.3490000  73.3000000   4.9780000  74.1920000  73.4200000   3.5870000
  73.3680000  72.7430000   5.8090000  75.5800000  73.7880000   5.5830000
  73.3910000  73.1020000   3.1860000  75.1680000  73.9850000   2.7770000
  72.5540000  72.4260000   5.4360000  73.5470000  72.6410000   7.1960000
  76.5720000  74.3600000   4.7500000  75.7590000  73.6860000   6.9700000
  76.3930000  74.4610000   3.3760000  75.0040000  74.1100000   1.3540000
  72.5550000  72.0690000   8.0280000  74.7780000  73.1290000   7.8010000
  77.3770000  74.6810000   5.1400000  76.5730000  74.0030000   7.3430000
  77.3890000  75.0470000   2.5130000  74.2050000  73.8040000   0.9420000
  75.9830000  74.6610000   0.5920000  72.7340000  71.9680000   9.4030000
  71.7500000  71.7480000   7.6390000  74.9340000  73.0090000   9.1920000
  77.1910000  75.1440000   1.1770000  78.1990000  75.3710000   2.8880000
  75.8620000  74.7260000  -0.3480000  71.7380000  71.3820000  10.2660000
  73.9580000  72.4440000  10.0020000  75.7360000  73.3270000   9.5930000
  77.8590000  75.5360000   0.6280000  71.9360000  71.2850000  11.6020000
  70.9280000  71.0580000   9.8910000  74.1220000  72.3190000  11.4250000
  73.1430000  71.7680000  12.1860000  71.2670000  70.8930000  12.1510000
  74.9220000  72.6250000  11.8360000  73.2640000  71.7030000  13.1270000
  75.0850000  80.9790000   4.9780000  74.9290000  81.0980000   3.5870000
  74.1040000  80.4210000   5.8090000  76.3160000  81.4670000   5.5830000
  74.1270000  80.7810000   3.1860000  75.9040000  81.6630000   2.7770000
  73.2900000  80.1040000   5.4360000  74.2830000  80.3200000   7.1960000
  77.3080000  82.0380000   4.7500000  76.4950000  81.3650000   6.9700000
  77.1290000  82.1390000   3.3760000  75.7410000  81.7890000   1.3540000
  73.2910000  79.7480000   8.0280000  75.5140000  80.8070000   7.8010000
  78.1130000  82.3590000   5.1400000  77.3090000  81.6820000   7.3430000
  78.1250000  82.7250000   2.5130000  74.9410000  81.4820000   0.9420000
  76.7200000  82.3400000   0.5920000  73.4700000  79.6470000   9.4030000
  72.4860000  79.4270000   7.6390000  75.6700000  80.6880000   9.1920000
  77.9270000  82.8220000   1.1770000  78.9350000  83.0490000   2.8880000
  76.5980000  82.4050000  -0.3480000  72.4740000  79.0610000  10.2660000
  74.6940000  80.1230000  10.0020000  76.4720000  81.0060000   9.5930000
  78.5950000  83.2140000   0.6280000  72.6720000  78.9640000  11.6020000
  71.6640000  78.7370000   9.8910000  74.8580000  79.9980000  11.4250000
  73.8790000  79.4460000  12.1860000  72.0030000  78.5720000  12.1510000
  75.6580000  80.3040000  11.8360000  74.0000000  79.3820000  13.1270000
  75.5860000  84.2560000  19.0350000  75.4300000  84.3750000  17.6430000
  74.6050000  83.6980000  19.8660000  76.8170000  84.7440000  19.6390000
  74.6280000  84.0570000  17.2430000  76.4060000  84.9400000  16.8340000
  73.7920000  83.3810000  19.4930000  74.7840000  83.5960000  21.2530000
  77.8090000  85.3150000  18.8070000  76.9960000  84.6420000  21.0270000
  77.6300000  85.4160000  17.4320000  76.2420000  85.0660000  15.4110000
  73.7930000  83.0250000  22.0850000  76.0150000  84.0840000  21.8580000
  78.6140000  85.6360000  19.1970000  77.8100000  84.9590000  21.3990000
  78.6260000  86.0020000  16.5690000  75.4420000  84.7590000  14.9990000
  77.2210000  85.6170000  14.6490000  73.9710000  82.9240000  23.4600000
  72.9870000  82.7040000  21.6960000  76.1720000  83.9650000  23.2490000
  78.4280000  86.0990000  15.2340000  79.4360000  86.3260000  16.9450000
  77.1000000  85.6820000  13.7090000  72.9750000  82.3380000  24.3230000
  75.1960000  83.4000000  24.0590000  76.9730000  84.2830000  23.6500000
  79.0970000  86.4910000  14.6840000  73.1730000  82.2410000  25.6590000
  72.1650000  82.0140000  23.9480000  75.3600000  83.2740000  25.4810000
  74.3810000  82.7230000  26.2430000  72.5050000  81.8490000  26.2080000
  76.1590000  83.5810000  25.8930000  74.5020000  82.6580000  27.1840000
