Generated by cif2gro.py
 4608
    1PEN     C1    1   0.925   1.877   4.843
    1PEN     C2    2   0.826   1.877   4.945
    1PEN     C3    3   1.049   1.804   4.867
    1PEN     C4    4   0.908   1.945   4.722
    1PEN     C5    5   0.846   1.811   5.065
    1PEN     H6    6   0.745   1.924   4.931
    1PEN     C7    7   1.066   1.736   4.989
    1PEN     C8    8   1.147   1.803   4.766
    1PEN     C9    9   1.005   1.944   4.622
    1PEN    H10   10   0.826   1.992   4.709
    1PEN    C11   11   0.747   1.813   5.169
    1PEN    C12   12   0.969   1.739   5.088
    1PEN    H13   13   1.146   1.687   5.004
    1PEN    H14   14   1.228   1.756   4.779
    1PEN    C15   15   1.130   1.871   4.645
    1PEN    C16   16   0.988   2.012   4.499
    1PEN    C17   17   0.769   1.748   5.286
    1PEN    H18   18   0.666   1.860   5.155
    1PEN    C19   19   0.986   1.673   5.213
    1PEN    C20   20   1.228   1.871   4.543
    1PEN    C21   21   1.085   2.009   4.400
    1PEN    H22   22   0.908   2.060   4.484
    1PEN    C23   23   0.890   1.677   5.309
    1PEN    H24   24   0.702   1.751   5.354
    1PEN    H25   25   1.066   1.625   5.230
    1PEN    H26   26   1.310   1.824   4.558
    1PEN    C27   27   1.209   1.937   4.423
    1PEN    C28   28   1.068   2.075   4.275
    1PEN    H29   29   0.904   1.632   5.392
    1PEN    C30   30   1.307   1.935   4.319
    1PEN    C31   31   1.164   2.071   4.179
    1PEN    H32   32   0.988   2.123   4.258
    1PEN    C33   33   1.286   1.999   4.202
    1PEN    H34   34   1.388   1.888   4.333
    1PEN    H35   35   1.150   2.115   4.096
    1PEN    H36   36   1.352   1.997   4.134
    2PEN     C1   37   1.095   3.852   3.438
    2PEN     C2   38   0.997   3.853   3.540
    2PEN     C3   39   1.220   3.779   3.461
    2PEN     C4   40   1.078   3.920   3.316
    2PEN     C5   41   1.017   3.787   3.660
    2PEN     H6   42   0.916   3.900   3.525
    2PEN     C7   43   1.237   3.712   3.583
    2PEN     C8   44   1.317   3.779   3.361
    2PEN     C9   45   1.176   3.920   3.216
    2PEN    H10   46   0.997   3.968   3.303
    2PEN    C11   47   0.918   3.789   3.763
    2PEN    C12   48   1.140   3.715   3.682
    2PEN    H13   49   1.317   3.663   3.599
    2PEN    H14   50   1.399   3.732   3.374
    2PEN    C15   51   1.300   3.847   3.239
    2PEN    C16   52   1.159   3.988   3.094
    2PEN    C17   53   0.939   3.724   3.881
    2PEN    H18   54   0.837   3.836   3.750
    2PEN    C19   55   1.157   3.649   3.808
    2PEN    C20   56   1.399   3.846   3.137
    2PEN    C21   57   1.256   3.985   2.995
    2PEN    H22   58   1.079   4.036   3.078
    2PEN    C23   59   1.061   3.653   3.904
    2PEN    H24   60   0.873   3.727   3.948
    2PEN    H25   61   1.237   3.600   3.824
    2PEN    H26   62   1.480   3.800   3.152
    2PEN    C27   63   1.379   3.912   3.017
    2PEN    C28   64   1.239   4.051   2.869
    2PEN    H29   65   1.075   3.608   3.986
    2PEN    C30   66   1.478   3.911   2.914
    2PEN    C31   67   1.335   4.047   2.773
    2PEN    H32   68   1.159   4.099   2.853
    2PEN    C33   69   1.457   3.975   2.796
    2PEN    H34   70   1.559   3.864   2.927
    2PEN    H35   71   1.321   4.091   2.691
    2PEN    H36   72   1.523   3.973   2.729
    3PEN     C1   73   0.898   1.989   2.032
    3PEN     C2   74   0.800   1.989   2.134
    3PEN     C3   75   1.023   1.916   2.055
    3PEN     C4   76   0.881   2.057   1.911
    3PEN     C5   77   0.819   1.924   2.254
    3PEN     H6   78   0.718   2.036   2.119
    3PEN     C7   79   1.040   1.848   2.178
    3PEN     C8   80   1.120   1.916   1.955
    3PEN     C9   81   0.979   2.056   1.810
    3PEN    H10   82   0.800   2.104   1.898
    3PEN    C11   83   0.721   1.925   2.358
    3PEN    C12   84   0.942   1.851   2.277
    3PEN    H13   85   1.120   1.800   2.193
    3PEN    H14   86   1.201   1.868   1.968
    3PEN    C15   87   1.103   1.984   1.834
    3PEN    C16   88   0.962   2.124   1.688
    3PEN    C17   89   0.742   1.861   2.475
    3PEN    H18   90   0.639   1.972   2.344
    3PEN    C19   91   0.959   1.785   2.402
    3PEN    C20   92   1.201   1.983   1.732
    3PEN    C21   93   1.059   2.121   1.589
    3PEN    H22   94   0.881   2.173   1.673
    3PEN    C23   95   0.864   1.789   2.498
    3PEN    H24   96   0.675   1.863   2.543
    3PEN    H25   97   1.040   1.737   2.419
    3PEN    H26   98   1.283   1.936   1.746
    3PEN    C27   99   1.182   2.049   1.612
    3PEN    C28  100   1.042   2.187   1.464
    3PEN    H29  101   0.878   1.745   2.581
    3PEN    C30  102   1.280   2.047   1.508
    3PEN    C31  103   1.137   2.183   1.368
    3PEN    H32  104   0.961   2.236   1.447
    3PEN    C33  105   1.259   2.112   1.391
    3PEN    H34  106   1.362   2.000   1.522
    3PEN    H35  107   1.124   2.228   1.285
    3PEN    H36  108   1.326   2.109   1.323
    4PEN     C1  109   0.906   0.120   0.428
    4PEN     C2  110   1.004   0.120   0.326
    4PEN     C3  111   0.781   0.193   0.405
    4PEN     C4  112   0.923   0.052   0.549
    4PEN     C5  113   0.985   0.186   0.206
    4PEN     H6  114   1.086   0.073   0.340
    4PEN     C7  115   0.764   0.261   0.282
    4PEN     C8  116   0.684   0.194   0.505
    4PEN     C9  117   0.825   0.053   0.650
    4PEN    H10  118   1.004   0.005   0.562
    4PEN    C11  119   1.083   0.184   0.102
    4PEN    C12  120   0.861   0.258   0.183
    4PEN    H13  121   0.684   0.310   0.267
    4PEN    H14  122   0.602   0.241   0.492
    4PEN    C15  123   0.701   0.126   0.626
    4PEN    C16  124   0.842  -0.015   0.772
    4PEN    C17  125   1.062   0.248  -0.015
    4PEN    H18  126   1.164   0.137   0.116
    4PEN    C19  127   0.844   0.324   0.058
    4PEN    C20  128   0.602   0.126   0.728
    4PEN    C21  129   0.745  -0.012   0.871
    4PEN    H22  130   0.922  -0.064   0.787
    4PEN    C23  131   0.940   0.320  -0.038
    4PEN    H24  132   1.128   0.246  -0.083
    4PEN    H25  133   0.764   0.372   0.041
    4PEN    H26  134   0.521   0.173   0.714
    4PEN    C27  135   0.622   0.060   0.848
    4PEN    C28  136   0.762  -0.078   0.996
    4PEN    H29  137   0.926   0.364  -0.121
    4PEN    C30  138   0.523   0.062   0.952
    4PEN    C31  139   0.666  -0.074   1.092
    4PEN    H32  140   0.842  -0.126   1.013
    4PEN    C33  141   0.545  -0.003   1.069
    4PEN    H34  142   0.442   0.109   0.938
    4PEN    H35  143   0.680  -0.118   1.175
    4PEN    H36  144   0.478  -0.000   1.137
    5PEN     C1  145   0.875   1.549   3.438
    5PEN     C2  146   0.776   1.549   3.540
    5PEN     C3  147   0.999   1.476   3.461
    5PEN     C4  148   0.858   1.617   3.316
    5PEN     C5  149   0.796   1.483   3.660
    5PEN     H6  150   0.695   1.596   3.525
    5PEN     C7  151   1.016   1.408   3.583
    5PEN     C8  152   1.097   1.475   3.361
    5PEN     C9  153   0.955   1.616   3.216
    5PEN    H10  154   0.776   1.664   3.303
    5PEN    C11  155   0.697   1.485   3.763
    5PEN    C12  156   0.919   1.411   3.682
    5PEN    H13  157   1.096   1.359   3.599
    5PEN    H14  158   1.178   1.428   3.374
    5PEN    C15  159   1.080   1.543   3.239
    5PEN    C16  160   0.938   1.684   3.094
    5PEN    C17  161   0.718   1.421   3.881
    5PEN    H18  162   0.616   1.532   3.750
    5PEN    C19  163   0.936   1.345   3.808
    5PEN    C20  164   1.178   1.543   3.137
    5PEN    C21  165   1.035   1.681   2.995
    5PEN    H22  166   0.858   1.733   3.078
    5PEN    C23  167   0.840   1.349   3.904
    5PEN    H24  168   0.652   1.423   3.948
    5PEN    H25  169   1.016   1.297   3.824
    5PEN    H26  170   1.259   1.496   3.152
    5PEN    C27  171   1.158   1.609   3.017
    5PEN    C28  172   1.018   1.747   2.869
    5PEN    H29  173   0.854   1.305   3.986
    5PEN    C30  174   1.257   1.607   2.914
    5PEN    C31  175   1.114   1.743   2.773
    5PEN    H32  176   0.938   1.795   2.853
    5PEN    C33  177   1.236   1.672   2.796
    5PEN    H34  178   1.338   1.560   2.927
    5PEN    H35  179   1.100   1.787   2.691
    5PEN    H36  180   1.302   1.669   2.729
    6PEN     C1  181   0.824   1.221   2.032
    6PEN     C2  182   0.726   1.222   2.134
    6PEN     C3  183   0.949   1.148   2.055
    6PEN     C4  184   0.807   1.289   1.911
    6PEN     C5  185   0.746   1.156   2.254
    6PEN     H6  186   0.645   1.268   2.119
    6PEN     C7  187   0.966   1.081   2.178
    6PEN     C8  188   1.046   1.148   1.955
    6PEN     C9  189   0.905   1.289   1.810
    6PEN    H10  190   0.726   1.336   1.898
    6PEN    C11  191   0.647   1.157   2.358
    6PEN    C12  192   0.869   1.083   2.277
    6PEN    H13  193   1.046   1.032   2.193
    6PEN    H14  194   1.128   1.100   1.968
    6PEN    C15  195   1.029   1.216   1.834
    6PEN    C16  196   0.888   1.356   1.688
    6PEN    C17  197   0.668   1.093   2.475
    6PEN    H18  198   0.566   1.204   2.344
    6PEN    C19  199   0.886   1.017   2.402
    6PEN    C20  200   1.128   1.215   1.732
    6PEN    C21  201   0.985   1.354   1.589
    6PEN    H22  202   0.808   1.405   1.673
    6PEN    C23  203   0.790   1.022   2.498
    6PEN    H24  204   0.602   1.095   2.543
    6PEN    H25  205   0.966   0.969   2.419
    6PEN    H26  206   1.209   1.168   1.746
    6PEN    C27  207   1.108   1.281   1.612
    6PEN    C28  208   0.968   1.420   1.464
    6PEN    H29  209   0.804   0.977   2.581
    6PEN    C30  210   1.207   1.279   1.508
    6PEN    C31  211   1.064   1.415   1.368
    6PEN    H32  212   0.888   1.468   1.447
    6PEN    C33  213   1.186   1.344   1.391
    6PEN    H34  214   1.288   1.233   1.522
    6PEN    H35  215   1.050   1.460   1.285
    6PEN    H36  216   1.252   1.341   1.323
    7PEN     C1  217   0.774   0.893   0.626
    7PEN     C2  218   0.676   0.894   0.728
    7PEN     C3  219   0.899   0.821   0.650
    7PEN     C4  220   0.757   0.961   0.505
    7PEN     C5  221   0.695   0.828   0.848
    7PEN     H6  222   0.594   0.941   0.714
    7PEN     C7  223   0.916   0.753   0.772
    7PEN     C8  224   0.996   0.820   0.549
    7PEN     C9  225   0.855   0.961   0.405
    7PEN    H10  226   0.676   1.009   0.492
    7PEN    C11  227   0.597   0.830   0.952
    7PEN    C12  228   0.819   0.756   0.871
    7PEN    H13  229   0.996   0.704   0.787
    7PEN    H14  230   1.078   0.773   0.562
    7PEN    C15  231   0.979   0.888   0.428
    7PEN    C16  232   0.838   1.029   0.282
    7PEN    C17  233   0.618   0.765   1.069
    7PEN    H18  234   0.516   0.877   0.938
    7PEN    C19  235   0.836   0.690   0.996
    7PEN    C20  236   1.078   0.888   0.326
    7PEN    C21  237   0.935   1.026   0.183
    7PEN    H22  238   0.758   1.077   0.267
    7PEN    C23  239   0.740   0.694   1.092
    7PEN    H24  240   0.552   0.768   1.137
    7PEN    H25  241   0.916   0.641   1.013
    7PEN    H26  242   1.159   0.841   0.340
    7PEN    C27  243   1.058   0.953   0.206
    7PEN    C28  244   0.918   1.092   0.058
    7PEN    H29  245   0.754   0.649   1.175
    7PEN    C30  246   1.157   0.952   0.102
    7PEN    C31  247   1.014   1.088  -0.038
    7PEN    H32  248   0.838   1.140   0.041
    7PEN    C33  249   1.135   1.016  -0.015
    7PEN    H34  250   1.238   0.905   0.116
    7PEN    H35  251   1.000   1.132  -0.121
    7PEN    H36  252   1.202   1.014  -0.083
    8PEN     C1  253   1.250   3.519   1.834
    8PEN     C2  254   1.349   3.519   1.732
    8PEN     C3  255   1.126   3.592   1.810
    8PEN     C4  256   1.267   3.451   1.955
    8PEN     C5  257   1.329   3.585   1.612
    8PEN     H6  258   1.430   3.472   1.746
    8PEN     C7  259   1.109   3.660   1.688
    8PEN     C8  260   1.028   3.593   1.911
    8PEN     C9  261   1.170   3.452   2.055
    8PEN    H10  262   1.349   3.404   1.968
    8PEN    C11  263   1.428   3.583   1.508
    8PEN    C12  264   1.206   3.657   1.589
    8PEN    H13  265   1.029   3.709   1.673
    8PEN    H14  266   0.947   3.640   1.898
    8PEN    C15  267   1.045   3.525   2.032
    8PEN    C16  268   1.187   3.384   2.178
    8PEN    C17  269   1.406   3.647   1.391
    8PEN    H18  270   1.509   3.536   1.522
    8PEN    C19  271   1.189   3.723   1.464
    8PEN    C20  272   0.947   3.525   2.134
    8PEN    C21  273   1.090   3.387   2.277
    8PEN    H22  274   1.267   3.335   2.193
    8PEN    C23  275   1.285   3.719   1.368
    8PEN    H24  276   1.473   3.645   1.323
    8PEN    H25  277   1.109   3.771   1.447
    8PEN    H26  278   0.865   3.572   2.119
    8PEN    C27  279   0.966   3.459   2.254
    8PEN    C28  280   1.107   3.321   2.402
    8PEN    H29  281   1.271   3.763   1.285
    8PEN    C30  282   0.868   3.461   2.358
    8PEN    C31  283   1.011   3.325   2.498
    8PEN    H32  284   1.187   3.273   2.419
    8PEN    C33  285   0.889   3.397   2.475
    8PEN    H34  286   0.787   3.508   2.344
    8PEN    H35  287   1.025   3.281   2.581
    8PEN    H36  288   0.822   3.399   2.543
    9PEN     C1  289   0.848   1.661   0.626
    9PEN     C2  290   0.750   1.662   0.728
    9PEN     C3  291   0.972   1.588   0.650
    9PEN     C4  292   0.831   1.729   0.505
    9PEN     C5  293   0.769   1.596   0.848
    9PEN     H6  294   0.668   1.709   0.714
    9PEN     C7  295   0.989   1.521   0.772
    9PEN     C8  296   1.070   1.588   0.549
    9PEN     C9  297   0.928   1.729   0.405
    9PEN    H10  298   0.750   1.777   0.492
    9PEN    C11  299   0.671   1.598   0.952
    9PEN    C12  300   0.892   1.523   0.871
    9PEN    H13  301   1.070   1.472   0.787
    9PEN    H14  302   1.151   1.541   0.562
    9PEN    C15  303   1.053   1.656   0.428
    9PEN    C16  304   0.911   1.796   0.282
    9PEN    C17  305   0.692   1.533   1.069
    9PEN    H18  306   0.589   1.644   0.938
    9PEN    C19  307   0.909   1.457   0.996
    9PEN    C20  308   1.151   1.655   0.326
    9PEN    C21  309   1.009   1.794   0.183
    9PEN    H22  310   0.831   1.845   0.267
    9PEN    C23  311   0.814   1.462   1.092
    9PEN    H24  312   0.625   1.536   1.137
    9PEN    H25  313   0.990   1.409   1.013
    9PEN    H26  314   1.233   1.609   0.340
    9PEN    C27  315   1.132   1.721   0.206
    9PEN    C28  316   0.992   1.860   0.058
    9PEN    H29  317   0.827   1.417   1.175
    9PEN    C30  318   1.230   1.720   0.102
    9PEN    C31  319   1.087   1.855  -0.038
    9PEN    H32  320   0.911   1.908   0.041
    9PEN    C33  321   1.209   1.784  -0.015
    9PEN    H34  322   1.312   1.673   0.116
    9PEN    H35  323   1.073   1.900  -0.121
    9PEN    H36  324   1.276   1.782  -0.083
   10PEN     C1  325   0.948   2.317   3.438
   10PEN     C2  326   0.850   2.317   3.540
   10PEN     C3  327   1.073   2.244   3.461
   10PEN     C4  328   0.931   2.385   3.316
   10PEN     C5  329   0.869   2.251   3.660
   10PEN     H6  330   0.768   2.364   3.525
   10PEN     C7  331   1.090   2.176   3.583
   10PEN     C8  332   1.170   2.243   3.361
   10PEN     C9  333   1.029   2.384   3.216
   10PEN    H10  334   0.850   2.432   3.303
   10PEN    C11  335   0.771   2.253   3.763
   10PEN    C12  336   0.992   2.179   3.682
   10PEN    H13  337   1.170   2.127   3.599
   10PEN    H14  338   1.252   2.196   3.374
   10PEN    C15  339   1.153   2.311   3.239
   10PEN    C16  340   1.012   2.452   3.094
   10PEN    C17  341   0.792   2.189   3.881
   10PEN    H18  342   0.689   2.300   3.750
   10PEN    C19  343   1.010   2.113   3.808
   10PEN    C20  344   1.252   2.311   3.137
   10PEN    C21  345   1.109   2.449   2.995
   10PEN    H22  346   0.932   2.501   3.078
   10PEN    C23  347   0.914   2.117   3.904
   10PEN    H24  348   0.725   2.191   3.948
   10PEN    H25  349   1.090   2.065   3.824
   10PEN    H26  350   1.333   2.264   3.152
   10PEN    C27  351   1.232   2.377   3.017
   10PEN    C28  352   1.092   2.515   2.869
   10PEN    H29  353   0.928   2.073   3.986
   10PEN    C30  354   1.330   2.375   2.914
   10PEN    C31  355   1.188   2.511   2.773
   10PEN    H32  356   1.012   2.563   2.853
   10PEN    C33  357   1.309   2.439   2.796
   10PEN    H34  358   1.412   2.328   2.927
   10PEN    H35  359   1.174   2.555   2.691
   10PEN    H36  360   1.376   2.437   2.729
   11PEN     C1  361   0.851   1.109   4.843
   11PEN     C2  362   0.753   1.109   4.945
   11PEN     C3  363   0.976   1.036   4.867
   11PEN     C4  364   0.834   1.177   4.722
   11PEN     C5  365   0.772   1.043   5.065
   11PEN     H6  366   0.671   1.156   4.931
   11PEN     C7  367   0.993   0.968   4.989
   11PEN     C8  368   1.073   1.035   4.766
   11PEN     C9  369   0.932   1.176   4.622
   11PEN    H10  370   0.753   1.224   4.709
   11PEN    C11  371   0.674   1.045   5.169
   11PEN    C12  372   0.895   0.971   5.088
   11PEN    H13  373   1.073   0.919   5.004
   11PEN    H14  374   1.154   0.988   4.779
   11PEN    C15  375   1.056   1.103   4.645
   11PEN    C16  376   0.915   1.244   4.499
   11PEN    C17  377   0.695   0.981   5.286
   11PEN    H18  378   0.592   1.092   5.155
   11PEN    C19  379   0.913   0.905   5.213
   11PEN    C20  380   1.154   1.103   4.543
   11PEN    C21  381   1.012   1.241   4.400
   11PEN    H22  382   0.834   1.293   4.484
   11PEN    C23  383   0.817   0.909   5.309
   11PEN    H24  384   0.628   0.983   5.354
   11PEN    H25  385   0.993   0.857   5.230
   11PEN    H26  386   1.236   1.056   4.558
   11PEN    C27  387   1.135   1.169   4.423
   11PEN    C28  388   0.995   1.307   4.275
   11PEN    H29  389   0.831   0.865   5.392
   11PEN    C30  390   1.233   1.167   4.319
   11PEN    C31  391   1.090   1.303   4.179
   11PEN    H32  392   0.914   1.355   4.258
   11PEN    C33  393   1.212   1.231   4.202
   11PEN    H34  394   1.315   1.120   4.333
   11PEN    H35  395   1.077   1.347   4.096
   11PEN    H36  396   1.279   1.229   4.134
   12PEN     C1  397   0.998   2.644   4.843
   12PEN     C2  398   0.900   2.645   4.945
   12PEN     C3  399   1.123   2.571   4.867
   12PEN     C4  400   0.981   2.712   4.722
   12PEN     C5  401   0.919   2.579   5.065
   12PEN     H6  402   0.818   2.692   4.931
   12PEN     C7  403   1.140   2.504   4.989
   12PEN     C8  404   1.220   2.571   4.766
   12PEN     C9  405   1.079   2.712   4.622
   12PEN    H10  406   0.900   2.760   4.709
   12PEN    C11  407   0.821   2.581   5.169
   12PEN    C12  408   1.043   2.506   5.088
   12PEN    H13  409   1.220   2.455   5.004
   12PEN    H14  410   1.302   2.524   4.779
   12PEN    C15  411   1.203   2.639   4.645
   12PEN    C16  412   1.062   2.780   4.499
   12PEN    C17  413   0.842   2.516   5.286
   12PEN    H18  414   0.740   2.627   5.155
   12PEN    C19  415   1.060   2.441   5.213
   12PEN    C20  416   1.302   2.638   4.543
   12PEN    C21  417   1.159   2.777   4.400
   12PEN    H22  418   0.982   2.828   4.484
   12PEN    C23  419   0.964   2.445   5.309
   12PEN    H24  420   0.776   2.519   5.354
   12PEN    H25  421   1.140   2.392   5.230
   12PEN    H26  422   1.383   2.592   4.558
   12PEN    C27  423   1.282   2.704   4.423
   12PEN    C28  424   1.142   2.843   4.275
   12PEN    H29  425   0.978   2.400   5.392
   12PEN    C30  426   1.381   2.703   4.319
   12PEN    C31  427   1.238   2.838   4.179
   12PEN    H32  428   1.062   2.891   4.258
   12PEN    C33  429   1.359   2.767   4.202
   12PEN    H34  430   1.462   2.656   4.333
   12PEN    H35  431   1.224   2.883   4.096
   12PEN    H36  432   1.426   2.765   4.134
   13PEN     C1  433   0.972   2.757   2.032
   13PEN     C2  434   0.873   2.757   2.134
   13PEN     C3  435   1.096   2.684   2.055
   13PEN     C4  436   0.955   2.825   1.911
   13PEN     C5  437   0.893   2.691   2.254
   13PEN     H6  438   0.792   2.804   2.119
   13PEN     C7  439   1.113   2.616   2.178
   13PEN     C8  440   1.194   2.683   1.955
   13PEN     C9  441   1.052   2.824   1.810
   13PEN    H10  442   0.873   2.872   1.898
   13PEN    C11  443   0.794   2.693   2.358
   13PEN    C12  444   1.016   2.619   2.277
   13PEN    H13  445   1.193   2.568   2.193
   13PEN    H14  446   1.275   2.636   1.968
   13PEN    C15  447   1.177   2.751   1.834
   13PEN    C16  448   1.035   2.892   1.688
   13PEN    C17  449   0.816   2.629   2.475
   13PEN    H18  450   0.713   2.740   2.344
   13PEN    C19  451   1.033   2.553   2.402
   13PEN    C20  452   1.275   2.751   1.732
   13PEN    C21  453   1.132   2.889   1.589
   13PEN    H22  454   0.955   2.941   1.673
   13PEN    C23  455   0.937   2.557   2.498
   13PEN    H24  456   0.749   2.631   2.543
   13PEN    H25  457   1.113   2.505   2.419
   13PEN    H26  458   1.357   2.704   1.746
   13PEN    C27  459   1.256   2.817   1.612
   13PEN    C28  460   1.115   2.955   1.464
   13PEN    H29  461   0.951   2.513   2.581
   13PEN    C30  462   1.354   2.815   1.508
   13PEN    C31  463   1.211   2.951   1.368
   13PEN    H32  464   1.035   3.003   1.447
   13PEN    C33  465   1.333   2.880   1.391
   13PEN    H34  466   1.435   2.768   1.522
   13PEN    H35  467   1.197   2.995   1.285
   13PEN    H36  468   1.399   2.877   1.323
   14PEN     C1  469   0.922   2.429   0.626
   14PEN     C2  470   0.823   2.430   0.728
   14PEN     C3  471   1.046   2.356   0.650
   14PEN     C4  472   0.905   2.497   0.505
   14PEN     C5  473   0.843   2.364   0.848
   14PEN     H6  474   0.742   2.476   0.714
   14PEN     C7  475   1.063   2.289   0.772
   14PEN     C8  476   1.144   2.356   0.549
   14PEN     C9  477   1.002   2.497   0.405
   14PEN    H10  478   0.823   2.544   0.492
   14PEN    C11  479   0.744   2.365   0.952
   14PEN    C12  480   0.966   2.291   0.871
   14PEN    H13  481   1.143   2.240   0.787
   14PEN    H14  482   1.225   2.308   0.562
   14PEN    C15  483   1.127   2.424   0.428
   14PEN    C16  484   0.985   2.564   0.282
   14PEN    C17  485   0.765   2.301   1.069
   14PEN    H18  486   0.663   2.412   0.938
   14PEN    C19  487   0.983   2.225   0.996
   14PEN    C20  488   1.225   2.423   0.326
   14PEN    C21  489   1.082   2.562   0.183
   14PEN    H22  490   0.905   2.613   0.267
   14PEN    C23  491   0.887   2.230   1.092
   14PEN    H24  492   0.699   2.303   1.137
   14PEN    H25  493   1.063   2.177   1.013
   14PEN    H26  494   1.306   2.376   0.340
   14PEN    C27  495   1.205   2.489   0.206
   14PEN    C28  496   1.065   2.628   0.058
   14PEN    H29  497   0.901   2.185   1.175
   14PEN    C30  498   1.304   2.488   0.102
   14PEN    C31  499   1.161   2.623  -0.038
   14PEN    H32  500   0.985   2.676   0.041
   14PEN    C33  501   1.283   2.552  -0.015
   14PEN    H34  502   1.385   2.441   0.116
   14PEN    H35  503   1.147   2.668  -0.121
   14PEN    H36  504   1.349   2.550  -0.083
   15PEN     C1  505   1.022   3.085   3.438
   15PEN     C2  506   0.923   3.085   3.540
   15PEN     C3  507   1.146   3.012   3.461
   15PEN     C4  508   1.005   3.153   3.316
   15PEN     C5  509   0.943   3.019   3.660
   15PEN     H6  510   0.842   3.132   3.525
   15PEN     C7  511   1.163   2.944   3.583
   15PEN     C8  512   1.244   3.011   3.361
   15PEN     C9  513   1.102   3.152   3.216
   15PEN    H10  514   0.923   3.200   3.303
   15PEN    C11  515   0.845   3.021   3.763
   15PEN    C12  516   1.066   2.947   3.682
   15PEN    H13  517   1.243   2.895   3.599
   15PEN    H14  518   1.325   2.964   3.374
   15PEN    C15  519   1.227   3.079   3.239
   15PEN    C16  520   1.085   3.220   3.094
   15PEN    C17  521   0.866   2.956   3.881
   15PEN    H18  522   0.763   3.068   3.750
   15PEN    C19  523   1.083   2.881   3.808
   15PEN    C20  524   1.325   3.079   3.137
   15PEN    C21  525   1.183   3.217   2.995
   15PEN    H22  526   1.005   3.268   3.078
   15PEN    C23  527   0.987   2.885   3.904
   15PEN    H24  528   0.799   2.959   3.948
   15PEN    H25  529   1.163   2.833   3.824
   15PEN    H26  530   1.407   3.032   3.152
   15PEN    C27  531   1.306   3.145   3.017
   15PEN    C28  532   1.165   3.283   2.869
   15PEN    H29  533   1.001   2.840   3.986
   15PEN    C30  534   1.404   3.143   2.914
   15PEN    C31  535   1.261   3.279   2.773
   15PEN    H32  536   1.085   3.331   2.853
   15PEN    C33  537   1.383   3.207   2.796
   15PEN    H34  538   1.486   3.096   2.927
   15PEN    H35  539   1.247   3.323   2.691
   15PEN    H36  540   1.450   3.205   2.729
   16PEN     C1  541   1.072   3.412   4.843
   16PEN     C2  542   0.974   3.413   4.945
   16PEN     C3  543   1.196   3.339   4.867
   16PEN     C4  544   1.055   3.480   4.722
   16PEN     C5  545   0.993   3.347   5.065
   16PEN     H6  546   0.892   3.459   4.931
   16PEN     C7  547   1.213   3.272   4.989
   16PEN     C8  548   1.294   3.339   4.766
   16PEN     C9  549   1.152   3.480   4.622
   16PEN    H10  550   0.974   3.527   4.709
   16PEN    C11  551   0.895   3.348   5.169
   16PEN    C12  552   1.116   3.274   5.088
   16PEN    H13  553   1.294   3.223   5.004
   16PEN    H14  554   1.375   3.292   4.779
   16PEN    C15  555   1.277   3.407   4.645
   16PEN    C16  556   1.135   3.547   4.499
   16PEN    C17  557   0.916   3.284   5.286
   16PEN    H18  558   0.813   3.395   5.155
   16PEN    C19  559   1.133   3.208   5.213
   16PEN    C20  560   1.375   3.406   4.543
   16PEN    C21  561   1.233   3.545   4.400
   16PEN    H22  562   1.055   3.596   4.484
   16PEN    C23  563   1.038   3.213   5.309
   16PEN    H24  564   0.849   3.286   5.354
   16PEN    H25  565   1.214   3.160   5.230
   16PEN    H26  566   1.457   3.360   4.558
   16PEN    C27  567   1.356   3.472   4.423
   16PEN    C28  568   1.216   3.611   4.275
   16PEN    H29  569   1.051   3.168   5.392
   16PEN    C30  570   1.454   3.471   4.319
   16PEN    C31  571   1.311   3.606   4.179
   16PEN    H32  572   1.135   3.659   4.258
   16PEN    C33  573   1.433   3.535   4.202
   16PEN    H34  574   1.536   3.424   4.333
   16PEN    H35  575   1.297   3.651   4.096
   16PEN    H36  576   1.500   3.533   4.134
   17PEN     C1  577   1.356   1.220   3.258
   17PEN     C2  578   1.455   1.277   3.175
   17PEN     C3  579   1.233   1.171   3.197
   17PEN     C4  580   1.374   1.209   3.397
   17PEN     C5  581   1.437   1.287   3.037
   17PEN     H6  582   1.535   1.309   3.214
   17PEN     C7  583   1.217   1.183   3.058
   17PEN     C8  584   1.134   1.115   3.280
   17PEN     C9  585   1.275   1.154   3.480
   17PEN    H10  586   1.455   1.241   3.434
   17PEN    C11  587   1.537   1.345   2.951
   17PEN    C12  588   1.315   1.239   2.977
   17PEN    H13  589   1.137   1.151   3.018
   17PEN    H14  590   1.053   1.083   3.243
   17PEN    C15  591   1.152   1.105   3.419
   17PEN    C16  592   1.291   1.142   3.619
   17PEN    C17  593   1.517   1.355   2.817
   17PEN    H18  594   1.618   1.378   2.988
   17PEN    C19  595   1.298   1.252   2.835
   17PEN    C20  596   1.053   1.048   3.502
   17PEN    C21  597   1.194   1.085   3.700
   17PEN    H22  598   1.371   1.173   3.659
   17PEN    C23  599   1.396   1.307   2.759
   17PEN    H24  600   1.584   1.394   2.762
   17PEN    H25  601   1.218   1.221   2.794
   17PEN    H26  602   0.973   1.016   3.463
   17PEN    C27  603   1.071   1.038   3.640
   17PEN    C28  604   1.210   1.073   3.842
   17PEN    H29  605   1.384   1.313   2.665
   17PEN    C30  606   0.971   0.979   3.726
   17PEN    C31  607   1.112   1.018   3.918
   17PEN    H32  608   1.290   1.103   3.883
   17PEN    C33  609   0.991   0.969   3.860
   17PEN    H34  610   0.890   0.947   3.689
   17PEN    H35  611   1.124   1.011   4.012
   17PEN    H36  612   0.924   0.930   3.915
   18PEN     C1  613   1.503   2.755   3.258
   18PEN     C2  614   1.602   2.812   3.175
   18PEN     C3  615   1.380   2.706   3.197
   18PEN     C4  616   1.521   2.745   3.397
   18PEN     C5  617   1.584   2.823   3.037
   18PEN     H6  618   1.683   2.845   3.214
   18PEN     C7  619   1.364   2.718   3.058
   18PEN     C8  620   1.282   2.651   3.280
   18PEN     C9  621   1.423   2.689   3.480
   18PEN    H10  622   1.602   2.777   3.434
   18PEN    C11  623   1.684   2.881   2.951
   18PEN    C12  624   1.462   2.775   2.977
   18PEN    H13  625   1.284   2.687   3.018
   18PEN    H14  626   1.200   2.619   3.243
   18PEN    C15  627   1.300   2.641   3.419
   18PEN    C16  628   1.438   2.677   3.619
   18PEN    C17  629   1.664   2.891   2.817
   18PEN    H18  630   1.765   2.914   2.988
   18PEN    C19  631   1.445   2.787   2.835
   18PEN    C20  632   1.200   2.583   3.502
   18PEN    C21  633   1.341   2.621   3.700
   18PEN    H22  634   1.518   2.709   3.659
   18PEN    C23  635   1.543   2.843   2.759
   18PEN    H24  636   1.731   2.930   2.762
   18PEN    H25  637   1.365   2.757   2.794
   18PEN    H26  638   1.120   2.551   3.463
   18PEN    C27  639   1.218   2.573   3.640
   18PEN    C28  640   1.357   2.608   3.842
   18PEN    H29  641   1.531   2.849   2.665
   18PEN    C30  642   1.119   2.515   3.726
   18PEN    C31  643   1.259   2.553   3.918
   18PEN    H32  644   1.437   2.639   3.883
   18PEN    C33  645   1.138   2.505   3.860
   18PEN    H34  646   1.038   2.482   3.689
   18PEN    H35  647   1.271   2.547   4.012
   18PEN    H36  648   1.072   2.466   3.915
   19PEN     C1  649   1.373   3.408   3.419
   19PEN     C2  650   1.274   3.351   3.502
   19PEN     C3  651   1.496   3.457   3.480
   19PEN     C4  652   1.355   3.419   3.280
   19PEN     C5  653   1.292   3.341   3.640
   19PEN     H6  654   1.194   3.319   3.463
   19PEN     C7  655   1.512   3.445   3.619
   19PEN     C8  656   1.594   3.513   3.397
   19PEN     C9  657   1.453   3.474   3.197
   19PEN    H10  658   1.274   3.387   3.243
   19PEN    C11  659   1.192   3.283   3.726
   19PEN    C12  660   1.414   3.389   3.700
   19PEN    H13  661   1.592   3.477   3.659
   19PEN    H14  662   1.676   3.545   3.434
   19PEN    C15  663   1.576   3.523   3.258
   19PEN    C16  664   1.438   3.486   3.058
   19PEN    C17  665   1.212   3.273   3.860
   19PEN    H18  666   1.111   3.250   3.689
   19PEN    C19  667   1.431   3.376   3.842
   19PEN    C20  668   1.676   3.580   3.175
   19PEN    C21  669   1.535   3.543   2.977
   19PEN    H22  670   1.358   3.455   3.018
   19PEN    C23  671   1.333   3.321   3.918
   19PEN    H24  672   1.145   3.234   3.915
   19PEN    H25  673   1.511   3.407   3.883
   19PEN    H26  674   1.756   3.612   3.214
   19PEN    C27  675   1.658   3.590   3.037
   19PEN    C28  676   1.519   3.555   2.835
   19PEN    H29  677   1.345   3.315   4.012
   19PEN    C30  678   1.757   3.649   2.951
   19PEN    C31  679   1.617   3.610   2.759
   19PEN    H32  680   1.439   3.525   2.794
   19PEN    C33  681   1.738   3.659   2.817
   19PEN    H34  682   1.838   3.681   2.988
   19PEN    H35  683   1.605   3.617   2.665
   19PEN    H36  684   1.804   3.698   2.762
   20PEN     C1  685   1.102   0.777   2.013
   20PEN     C2  686   1.003   0.720   2.097
   20PEN     C3  687   1.225   0.826   2.074
   20PEN     C4  688   1.084   0.787   1.875
   20PEN     C5  689   1.021   0.710   2.234
   20PEN     H6  690   0.923   0.688   2.058
   20PEN     C7  691   1.241   0.814   2.213
   20PEN     C8  692   1.323   0.882   1.991
   20PEN     C9  693   1.182   0.843   1.792
   20PEN    H10  694   1.003   0.756   1.838
   20PEN    C11  695   0.921   0.651   2.320
   20PEN    C12  696   1.143   0.757   2.294
   20PEN    H13  697   1.321   0.846   2.253
   20PEN    H14  698   1.405   0.913   2.028
   20PEN    C15  699   1.306   0.892   1.852
   20PEN    C16  700   1.167   0.855   1.653
   20PEN    C17  701   0.941   0.642   2.454
   20PEN    H18  702   0.840   0.619   2.283
   20PEN    C19  703   1.160   0.745   2.436
   20PEN    C20  704   1.405   0.949   1.769
   20PEN    C21  705   1.264   0.912   1.572
   20PEN    H22  706   1.087   0.823   1.612
   20PEN    C23  707   1.062   0.690   2.513
   20PEN    H24  708   0.874   0.602   2.509
   20PEN    H25  709   1.240   0.776   2.478
   20PEN    H26  710   1.485   0.981   1.808
   20PEN    C27  711   1.387   0.959   1.631
   20PEN    C28  712   1.248   0.924   1.429
   20PEN    H29  713   1.074   0.683   2.607
   20PEN    C30  714   1.486   1.018   1.545
   20PEN    C31  715   1.346   0.979   1.353
   20PEN    H32  716   1.168   0.893   1.388
   20PEN    C33  717   1.467   1.027   1.412
   20PEN    H34  718   1.567   1.050   1.583
   20PEN    H35  719   1.334   0.986   1.259
   20PEN    H36  720   1.534   1.067   1.357
   21PEN     C1  721   1.406   1.547   4.663
   21PEN     C2  722   1.505   1.604   4.580
   21PEN     C3  723   1.283   1.498   4.603
   21PEN     C4  724   1.424   1.537   4.802
   21PEN     C5  725   1.487   1.614   4.443
   21PEN     H6  726   1.586   1.636   4.619
   21PEN     C7  727   1.267   1.510   4.464
   21PEN     C8  728   1.185   1.443   4.686
   21PEN     C9  729   1.326   1.481   4.885
   21PEN    H10  730   1.505   1.569   4.839
   21PEN    C11  731   1.587   1.673   4.356
   21PEN    C12  732   1.365   1.567   4.383
   21PEN    H13  733   1.187   1.479   4.424
   21PEN    H14  734   1.103   1.411   4.649
   21PEN    C15  735   1.203   1.432   4.825
   21PEN    C16  736   1.341   1.469   5.024
   21PEN    C17  737   1.567   1.683   4.223
   21PEN    H18  738   1.668   1.705   4.394
   21PEN    C19  739   1.348   1.579   4.241
   21PEN    C20  740   1.103   1.375   4.908
   21PEN    C21  741   1.244   1.413   5.105
   21PEN    H22  742   1.421   1.501   5.065
   21PEN    C23  743   1.446   1.635   4.164
   21PEN    H24  744   1.634   1.722   4.168
   21PEN    H25  745   1.268   1.549   4.199
   21PEN    H26  746   1.023   1.343   4.869
   21PEN    C27  747   1.121   1.365   5.046
   21PEN    C28  748   1.260   1.400   5.248
   21PEN    H29  749   1.434   1.641   4.070
   21PEN    C30  750   1.022   1.307   5.132
   21PEN    C31  751   1.162   1.345   5.324
   21PEN    H32  752   1.340   1.431   5.289
   21PEN    C33  753   1.041   1.297   5.265
   21PEN    H34  754   0.941   1.274   5.094
   21PEN    H35  755   1.174   1.339   5.418
   21PEN    H36  756   0.975   1.258   5.320
   22PEN     C1  757   1.255   0.564   0.446
   22PEN     C2  758   1.355   0.621   0.363
   22PEN     C3  759   1.132   0.515   0.386
   22PEN     C4  760   1.273   0.554   0.585
   22PEN     C5  761   1.337   0.631   0.226
   22PEN     H6  762   1.435   0.653   0.402
   22PEN     C7  763   1.117   0.527   0.247
   22PEN     C8  764   1.034   0.460   0.469
   22PEN     C9  765   1.175   0.498   0.668
   22PEN    H10  766   1.355   0.586   0.622
   22PEN    C11  767   1.436   0.690   0.139
   22PEN    C12  768   1.214   0.584   0.166
   22PEN    H13  769   1.037   0.496   0.207
   22PEN    H14  770   0.953   0.428   0.432
   22PEN    C15  771   1.052   0.449   0.608
   22PEN    C16  772   1.191   0.486   0.807
   22PEN    C17  773   1.417   0.700   0.006
   22PEN    H18  774   1.517   0.722   0.177
   22PEN    C19  775   1.198   0.596   0.024
   22PEN    C20  776   0.953   0.392   0.691
   22PEN    C21  777   1.093   0.430   0.888
   22PEN    H22  778   1.271   0.518   0.847
   22PEN    C23  779   1.296   0.651  -0.053
   22PEN    H24  780   1.483   0.739  -0.049
   22PEN    H25  781   1.118   0.566  -0.018
   22PEN    H26  782   0.872   0.360   0.652
   22PEN    C27  783   0.971   0.382   0.829
   22PEN    C28  784   1.110   0.417   1.031
   22PEN    H29  785   1.284   0.658  -0.147
   22PEN    C30  786   0.871   0.324   0.915
   22PEN    C31  787   1.012   0.362   1.107
   22PEN    H32  788   1.190   0.448   1.072
   22PEN    C33  789   0.891   0.314   1.048
   22PEN    H34  790   0.790   0.291   0.877
   22PEN    H35  791   1.024   0.356   1.201
   22PEN    H36  792   0.824   0.275   1.103
   23PEN     C1  793   1.379   1.660   1.852
   23PEN     C2  794   1.478   1.717   1.769
   23PEN     C3  795   1.256   1.611   1.792
   23PEN     C4  796   1.397   1.650   1.991
   23PEN     C5  797   1.460   1.727   1.631
   23PEN     H6  798   1.559   1.749   1.808
   23PEN     C7  799   1.240   1.623   1.653
   23PEN     C8  800   1.158   1.555   1.875
   23PEN     C9  801   1.299   1.594   2.074
   23PEN    H10  802   1.478   1.681   2.028
   23PEN    C11  803   1.560   1.786   1.545
   23PEN    C12  804   1.338   1.679   1.572
   23PEN    H13  805   1.160   1.591   1.612
   23PEN    H14  806   1.077   1.523   1.838
   23PEN    C15  807   1.176   1.545   2.013
   23PEN    C16  808   1.315   1.582   2.213
   23PEN    C17  809   1.540   1.795   1.412
   23PEN    H18  810   1.641   1.818   1.583
   23PEN    C19  811   1.322   1.692   1.429
   23PEN    C20  812   1.077   1.488   2.097
   23PEN    C21  813   1.217   1.525   2.294
   23PEN    H22  814   1.395   1.614   2.253
   23PEN    C23  815   1.420   1.747   1.353
   23PEN    H24  816   1.607   1.834   1.357
   23PEN    H25  817   1.242   1.661   1.388
   23PEN    H26  818   0.996   1.456   2.058
   23PEN    C27  819   1.095   1.478   2.234
   23PEN    C28  820   1.233   1.513   2.436
   23PEN    H29  821   1.407   1.754   1.259
   23PEN    C30  822   0.995   1.419   2.320
   23PEN    C31  823   1.136   1.458   2.513
   23PEN    H32  824   1.313   1.543   2.478
   23PEN    C33  825   1.015   1.409   2.454
   23PEN    H34  826   0.914   1.387   2.283
   23PEN    H35  827   1.148   1.451   2.607
   23PEN    H36  828   0.948   1.370   2.509
   24PEN     C1  829   1.429   1.987   3.258
   24PEN     C2  830   1.528   2.045   3.175
   24PEN     C3  831   1.306   1.939   3.197
   24PEN     C4  832   1.447   1.977   3.397
   24PEN     C5  833   1.511   2.055   3.037
   24PEN     H6  834   1.609   2.077   3.214
   24PEN     C7  835   1.291   1.951   3.058
   24PEN     C8  836   1.208   1.883   3.280
   24PEN     C9  837   1.349   1.921   3.480
   24PEN    H10  838   1.529   2.009   3.434
   24PEN    C11  839   1.610   2.113   2.951
   24PEN    C12  840   1.388   2.007   2.977
   24PEN    H13  841   1.210   1.919   3.018
   24PEN    H14  842   1.127   1.851   3.243
   24PEN    C15  843   1.226   1.873   3.419
   24PEN    C16  844   1.365   1.910   3.619
   24PEN    C17  845   1.590   2.123   2.817
   24PEN    H18  846   1.691   2.146   2.988
   24PEN    C19  847   1.372   2.020   2.835
   24PEN    C20  848   1.127   1.816   3.502
   24PEN    C21  849   1.267   1.853   3.700
   24PEN    H22  850   1.445   1.941   3.659
   24PEN    C23  851   1.470   2.075   2.759
   24PEN    H24  852   1.657   2.162   2.762
   24PEN    H25  853   1.292   1.989   2.794
   24PEN    H26  854   1.046   1.783   3.463
   24PEN    C27  855   1.145   1.805   3.640
   24PEN    C28  856   1.284   1.840   3.842
   24PEN    H29  857   1.458   2.081   2.665
   24PEN    C30  858   1.045   1.747   3.726
   24PEN    C31  859   1.186   1.785   3.918
   24PEN    H32  860   1.364   1.871   3.883
   24PEN    C33  861   1.065   1.737   3.860
   24PEN    H34  862   0.964   1.714   3.689
   24PEN    H35  863   1.198   1.779   4.012
   24PEN    H36  864   0.998   1.698   3.915
   25PEN     C1  865   1.276   2.200   4.825
   25PEN     C2  866   1.177   2.143   4.908
   25PEN     C3  867   1.399   2.249   4.885
   25PEN     C4  868   1.258   2.211   4.686
   25PEN     C5  869   1.195   2.133   5.046
   25PEN     H6  870   1.096   2.111   4.869
   25PEN     C7  871   1.415   2.237   5.024
   25PEN     C8  872   1.497   2.305   4.802
   25PEN     C9  873   1.356   2.266   4.603
   25PEN    H10  874   1.177   2.179   4.649
   25PEN    C11  875   1.095   2.075   5.132
   25PEN    C12  876   1.317   2.181   5.105
   25PEN    H13  877   1.495   2.269   5.065
   25PEN    H14  878   1.579   2.337   4.839
   25PEN    C15  879   1.479   2.315   4.663
   25PEN    C16  880   1.341   2.278   4.464
   25PEN    C17  881   1.115   2.065   5.265
   25PEN    H18  882   1.014   2.042   5.094
   25PEN    C19  883   1.334   2.168   5.248
   25PEN    C20  884   1.579   2.372   4.580
   25PEN    C21  885   1.438   2.335   4.383
   25PEN    H22  886   1.261   2.246   4.424
   25PEN    C23  887   1.236   2.113   5.324
   25PEN    H24  888   1.048   2.026   5.320
   25PEN    H25  889   1.414   2.199   5.289
   25PEN    H26  890   1.659   2.404   4.619
   25PEN    C27  891   1.561   2.382   4.443
   25PEN    C28  892   1.422   2.347   4.241
   25PEN    H29  893   1.248   2.107   5.418
   25PEN    C30  894   1.660   2.441   4.356
   25PEN    C31  895   1.520   2.402   4.164
   25PEN    H32  896   1.342   2.317   4.199
   25PEN    C33  897   1.641   2.451   4.223
   25PEN    H34  898   1.741   2.473   4.394
   25PEN    H35  899   1.508   2.409   4.070
   25PEN    H36  900   1.707   2.490   4.168
   26PEN     C1  901   1.403   2.100   0.446
   26PEN     C2  902   1.502   2.157   0.363
   26PEN     C3  903   1.280   2.051   0.386
   26PEN     C4  904   1.421   2.090   0.585
   26PEN     C5  905   1.484   2.167   0.226
   26PEN     H6  906   1.582   2.189   0.402
   26PEN     C7  907   1.264   2.063   0.247
   26PEN     C8  908   1.181   1.995   0.469
   26PEN     C9  909   1.322   2.034   0.668
   26PEN    H10  910   1.502   2.121   0.622
   26PEN    C11  911   1.584   2.226   0.139
   26PEN    C12  912   1.362   2.120   0.166
   26PEN    H13  913   1.184   2.031   0.207
   26PEN    H14  914   1.100   1.964   0.432
   26PEN    C15  915   1.199   1.985   0.608
   26PEN    C16  916   1.338   2.022   0.807
   26PEN    C17  917   1.564   2.235   0.006
   26PEN    H18  918   1.665   2.258   0.177
   26PEN    C19  919   1.345   2.132   0.024
   26PEN    C20  920   1.100   1.928   0.691
   26PEN    C21  921   1.241   1.965   0.888
   26PEN    H22  922   1.418   2.054   0.847
   26PEN    C23  923   1.443   2.187  -0.053
   26PEN    H24  924   1.631   2.275  -0.049
   26PEN    H25  925   1.265   2.101  -0.018
   26PEN    H26  926   1.020   1.896   0.652
   26PEN    C27  927   1.118   1.918   0.829
   26PEN    C28  928   1.257   1.953   1.031
   26PEN    H29  929   1.431   2.194  -0.147
   26PEN    C30  930   1.018   1.859   0.915
   26PEN    C31  931   1.159   1.898   1.107
   26PEN    H32  932   1.337   1.984   1.072
   26PEN    C33  933   1.038   1.850   1.048
   26PEN    H34  934   0.937   1.827   0.877
   26PEN    H35  935   1.171   1.891   1.201
   26PEN    H36  936   0.971   1.810   1.103
   27PEN     C1  937   1.350   2.968   4.825
   27PEN     C2  938   1.251   2.911   4.908
   27PEN     C3  939   1.473   3.017   4.885
   27PEN     C4  940   1.332   2.978   4.686
   27PEN     C5  941   1.268   2.901   5.046
   27PEN     H6  942   1.170   2.879   4.869
   27PEN     C7  943   1.488   3.005   5.024
   27PEN     C8  944   1.571   3.073   4.802
   27PEN     C9  945   1.430   3.034   4.603
   27PEN    H10  946   1.250   2.947   4.649
   27PEN    C11  947   1.169   2.842   5.132
   27PEN    C12  948   1.391   2.949   5.105
   27PEN    H13  949   1.569   3.037   5.065
   27PEN    H14  950   1.652   3.104   4.839
   27PEN    C15  951   1.553   3.083   4.663
   27PEN    C16  952   1.414   3.046   4.464
   27PEN    C17  953   1.189   2.833   5.265
   27PEN    H18  954   1.088   2.810   5.094
   27PEN    C19  955   1.407   2.936   5.248
   27PEN    C20  956   1.652   3.140   4.580
   27PEN    C21  957   1.512   3.103   4.383
   27PEN    H22  958   1.334   3.014   4.424
   27PEN    C23  959   1.309   2.881   5.324
   27PEN    H24  960   1.122   2.793   5.320
   27PEN    H25  961   1.487   2.967   5.289
   27PEN    H26  962   1.733   3.172   4.619
   27PEN    C27  963   1.634   3.150   4.443
   27PEN    C28  964   1.495   3.115   4.241
   27PEN    H29  965   1.321   2.874   5.418
   27PEN    C30  966   1.734   3.209   4.356
   27PEN    C31  967   1.593   3.170   4.164
   27PEN    H32  968   1.416   3.085   4.199
   27PEN    C33  969   1.714   3.219   4.223
   27PEN    H34  970   1.815   3.241   4.394
   27PEN    H35  971   1.581   3.177   4.070
   27PEN    H36  972   1.781   3.258   4.168
   28PEN     C1  973   1.453   2.428   1.852
   28PEN     C2  974   1.552   2.485   1.769
   28PEN     C3  975   1.330   2.379   1.792
   28PEN     C4  976   1.471   2.417   1.991
   28PEN     C5  977   1.534   2.495   1.631
   28PEN     H6  978   1.632   2.517   1.808
   28PEN     C7  979   1.314   2.391   1.653
   28PEN     C8  980   1.232   2.323   1.875
   28PEN     C9  981   1.373   2.362   2.074
   28PEN    H10  982   1.552   2.449   2.028
   28PEN    C11  983   1.634   2.553   1.545
   28PEN    C12  984   1.412   2.447   1.572
   28PEN    H13  985   1.234   2.359   1.612
   28PEN    H14  986   1.150   2.291   1.838
   28PEN    C15  987   1.250   2.313   2.013
   28PEN    C16  988   1.388   2.350   2.213
   28PEN    C17  989   1.614   2.563   1.412
   28PEN    H18  990   1.715   2.586   1.583
   28PEN    C19  991   1.395   2.460   1.429
   28PEN    C20  992   1.150   2.256   2.097
   28PEN    C21  993   1.291   2.293   2.294
   28PEN    H22  994   1.468   2.381   2.253
   28PEN    C23  995   1.493   2.515   1.353
   28PEN    H24  996   1.681   2.602   1.357
   28PEN    H25  997   1.315   2.429   1.388
   28PEN    H26  998   1.070   2.224   2.058
   28PEN    C27  999   1.168   2.246   2.234
   28PEN    C28 1000   1.307   2.281   2.436
   28PEN    H29 1001   1.481   2.521   1.259
   28PEN    C30 1002   1.069   2.187   2.320
   28PEN    C31 1003   1.209   2.226   2.513
   28PEN    H32 1004   1.387   2.311   2.478
   28PEN    C33 1005   1.088   2.177   2.454
   28PEN    H34 1006   0.988   2.155   2.283
   28PEN    H35 1007   1.221   2.219   2.607
   28PEN    H36 1008   1.022   2.138   2.509
   29PEN     C1 1009   1.526   3.195   1.852
   29PEN     C2 1010   1.626   3.253   1.769
   29PEN     C3 1011   1.403   3.147   1.792
   29PEN     C4 1012   1.544   3.185   1.991
   29PEN     C5 1013   1.608   3.263   1.631
   29PEN     H6 1014   1.706   3.285   1.808
   29PEN     C7 1015   1.388   3.159   1.653
   29PEN     C8 1016   1.305   3.091   1.875
   29PEN     C9 1017   1.446   3.130   2.074
   29PEN    H10 1018   1.626   3.217   2.028
   29PEN    C11 1019   1.707   3.321   1.545
   29PEN    C12 1020   1.485   3.215   1.572
   29PEN    H13 1021   1.308   3.127   1.612
   29PEN    H14 1022   1.224   3.059   1.838
   29PEN    C15 1023   1.323   3.081   2.013
   29PEN    C16 1024   1.462   3.118   2.213
   29PEN    C17 1025   1.688   3.331   1.412
   29PEN    H18 1026   1.788   3.354   1.583
   29PEN    C19 1027   1.469   3.228   1.429
   29PEN    C20 1028   1.224   3.024   2.097
   29PEN    C21 1029   1.364   3.061   2.294
   29PEN    H22 1030   1.542   3.149   2.253
   29PEN    C23 1031   1.567   3.283   1.353
   29PEN    H24 1032   1.754   3.370   1.357
   29PEN    H25 1033   1.389   3.197   1.388
   29PEN    H26 1034   1.143   2.991   2.058
   29PEN    C27 1035   1.242   3.013   2.234
   29PEN    C28 1036   1.381   3.049   2.436
   29PEN    H29 1037   1.555   3.289   1.259
   29PEN    C30 1038   1.142   2.955   2.320
   29PEN    C31 1039   1.283   2.993   2.513
   29PEN    H32 1040   1.461   3.079   2.478
   29PEN    C33 1041   1.162   2.945   2.454
   29PEN    H34 1042   1.061   2.922   2.283
   29PEN    H35 1043   1.295   2.987   2.607
   29PEN    H36 1044   1.095   2.906   2.509
   30PEN     C1 1045   1.627   3.851   4.663
   30PEN     C2 1046   1.726   3.908   4.580
   30PEN     C3 1047   1.504   3.802   4.603
   30PEN     C4 1048   1.645   3.841   4.802
   30PEN     C5 1049   1.708   3.918   4.443
   30PEN     H6 1050   1.806   3.940   4.619
   30PEN     C7 1051   1.488   3.814   4.464
   30PEN     C8 1052   1.405   3.746   4.686
   30PEN     C9 1053   1.546   3.785   4.885
   30PEN    H10 1054   1.726   3.872   4.839
   30PEN    C11 1055   1.808   3.977   4.356
   30PEN    C12 1056   1.585   3.870   4.383
   30PEN    H13 1057   1.408   3.782   4.424
   30PEN    H14 1058   1.324   3.715   4.649
   30PEN    C15 1059   1.423   3.736   4.825
   30PEN    C16 1060   1.562   3.773   5.024
   30PEN    C17 1061   1.788   3.986   4.223
   30PEN    H18 1062   1.889   4.009   4.394
   30PEN    C19 1063   1.569   3.883   4.241
   30PEN    C20 1064   1.324   3.679   4.908
   30PEN    C21 1065   1.464   3.716   5.105
   30PEN    H22 1066   1.642   3.805   5.065
   30PEN    C23 1067   1.667   3.938   4.164
   30PEN    H24 1068   1.855   4.026   4.168
   30PEN    H25 1069   1.489   3.852   4.199
   30PEN    H26 1070   1.244   3.647   4.869
   30PEN    C27 1071   1.342   3.669   5.046
   30PEN    C28 1072   1.481   3.704   5.248
   30PEN    H29 1073   1.655   3.945   4.070
   30PEN    C30 1074   1.242   3.610   5.132
   30PEN    C31 1075   1.383   3.649   5.324
   30PEN    H32 1076   1.561   3.735   5.289
   30PEN    C33 1077   1.262   3.601   5.265
   30PEN    H34 1078   1.161   3.578   5.094
   30PEN    H35 1079   1.395   3.642   5.418
   30PEN    H36 1080   1.195   3.561   5.320
   31PEN     C1 1081   1.329   1.332   0.446
   31PEN     C2 1082   1.428   1.389   0.363
   31PEN     C3 1083   1.206   1.283   0.386
   31PEN     C4 1084   1.347   1.322   0.585
   31PEN     C5 1085   1.410   1.399   0.226
   31PEN     H6 1086   1.509   1.421   0.402
   31PEN     C7 1087   1.190   1.295   0.247
   31PEN     C8 1088   1.108   1.228   0.469
   31PEN     C9 1089   1.249   1.266   0.668
   31PEN    H10 1090   1.428   1.354   0.622
   31PEN    C11 1091   1.510   1.458   0.139
   31PEN    C12 1092   1.288   1.352   0.166
   31PEN    H13 1093   1.110   1.263   0.207
   31PEN    H14 1094   1.026   1.196   0.432
   31PEN    C15 1095   1.126   1.217   0.608
   31PEN    C16 1096   1.264   1.254   0.807
   31PEN    C17 1097   1.490   1.468   0.006
   31PEN    H18 1098   1.591   1.490   0.177
   31PEN    C19 1099   1.272   1.364   0.024
   31PEN    C20 1100   1.027   1.160   0.691
   31PEN    C21 1101   1.167   1.198   0.888
   31PEN    H22 1102   1.345   1.286   0.847
   31PEN    C23 1103   1.369   1.419  -0.053
   31PEN    H24 1104   1.557   1.507  -0.049
   31PEN    H25 1105   1.192   1.334  -0.018
   31PEN    H26 1106   0.946   1.128   0.652
   31PEN    C27 1107   1.044   1.150   0.829
   31PEN    C28 1108   1.183   1.185   1.031
   31PEN    H29 1109   1.357   1.426  -0.147
   31PEN    C30 1110   0.945   1.091   0.915
   31PEN    C31 1111   1.085   1.130   1.107
   31PEN    H32 1112   1.263   1.216   1.072
   31PEN    C33 1113   0.965   1.082   1.048
   31PEN    H34 1114   0.864   1.059   0.877
   31PEN    H35 1115   1.097   1.124   1.201
   31PEN    H36 1116   0.898   1.043   1.103
   32PEN     C1 1117   1.476   2.868   0.446
   32PEN     C2 1118   1.575   2.925   0.363
   32PEN     C3 1119   1.353   2.819   0.386
   32PEN     C4 1120   1.494   2.858   0.585
   32PEN     C5 1121   1.558   2.935   0.226
   32PEN     H6 1122   1.656   2.957   0.402
   32PEN     C7 1123   1.338   2.831   0.247
   32PEN     C8 1124   1.255   2.763   0.469
   32PEN     C9 1125   1.396   2.802   0.668
   32PEN    H10 1126   1.576   2.889   0.622
   32PEN    C11 1127   1.657   2.994   0.139
   32PEN    C12 1128   1.435   2.887   0.166
   32PEN    H13 1129   1.257   2.799   0.207
   32PEN    H14 1130   1.174   2.732   0.432
   32PEN    C15 1131   1.273   2.753   0.608
   32PEN    C16 1132   1.412   2.790   0.807
   32PEN    C17 1133   1.637   3.003   0.006
   32PEN    H18 1134   1.738   3.026   0.177
   32PEN    C19 1135   1.419   2.900   0.024
   32PEN    C20 1136   1.174   2.696   0.691
   32PEN    C21 1137   1.314   2.733   0.888
   32PEN    H22 1138   1.492   2.822   0.847
   32PEN    C23 1139   1.517   2.955  -0.053
   32PEN    H24 1140   1.704   3.042  -0.049
   32PEN    H25 1141   1.339   2.869  -0.018
   32PEN    H26 1142   1.093   2.664   0.652
   32PEN    C27 1143   1.192   2.686   0.829
   32PEN    C28 1144   1.331   2.721   1.031
   32PEN    H29 1145   1.505   2.962  -0.147
   32PEN    C30 1146   1.092   2.627   0.915
   32PEN    C31 1147   1.233   2.666   1.107
   32PEN    H32 1148   1.410   2.751   1.072
   32PEN    C33 1149   1.112   2.617   1.048
   32PEN    H34 1150   1.011   2.595   0.877
   32PEN    H35 1151   1.245   2.659   1.201
   32PEN    H36 1152   1.045   2.578   1.103
   33PEN     C1 1153   1.502   1.549   3.438
   33PEN     C2 1154   1.404   1.549   3.540
   33PEN     C3 1155   1.627   1.476   3.461
   33PEN     C4 1156   1.485   1.617   3.316
   33PEN     C5 1157   1.423   1.483   3.660
   33PEN     H6 1158   1.322   1.596   3.525
   33PEN     C7 1159   1.644   1.408   3.583
   33PEN     C8 1160   1.724   1.475   3.361
   33PEN     C9 1161   1.583   1.616   3.216
   33PEN    H10 1162   1.404   1.664   3.303
   33PEN    C11 1163   1.325   1.485   3.763
   33PEN    C12 1164   1.546   1.411   3.682
   33PEN    H13 1165   1.724   1.359   3.599
   33PEN    H14 1166   1.805   1.428   3.374
   33PEN    C15 1167   1.707   1.543   3.239
   33PEN    C16 1168   1.566   1.684   3.094
   33PEN    C17 1169   1.346   1.421   3.881
   33PEN    H18 1170   1.243   1.532   3.750
   33PEN    C19 1171   1.564   1.345   3.808
   33PEN    C20 1172   1.806   1.543   3.137
   33PEN    C21 1173   1.663   1.681   2.995
   33PEN    H22 1174   1.485   1.733   3.078
   33PEN    C23 1175   1.468   1.349   3.904
   33PEN    H24 1176   1.279   1.423   3.948
   33PEN    H25 1177   1.644   1.297   3.824
   33PEN    H26 1178   1.887   1.496   3.152
   33PEN    C27 1179   1.786   1.609   3.017
   33PEN    C28 1180   1.646   1.747   2.869
   33PEN    H29 1181   1.482   1.305   3.986
   33PEN    C30 1182   1.884   1.607   2.914
   33PEN    C31 1183   1.741   1.743   2.773
   33PEN    H32 1184   1.565   1.795   2.853
   33PEN    C33 1185   1.863   1.672   2.796
   33PEN    H34 1186   1.966   1.560   2.927
   33PEN    H35 1187   1.728   1.787   2.691
   33PEN    H36 1188   1.930   1.669   2.729
   34PEN     C1 1189   1.657   1.216   1.834
   34PEN     C2 1190   1.755   1.215   1.732
   34PEN     C3 1191   1.533   1.289   1.810
   34PEN     C4 1192   1.674   1.148   1.955
   34PEN     C5 1193   1.736   1.281   1.612
   34PEN     H6 1194   1.837   1.168   1.746
   34PEN     C7 1195   1.515   1.356   1.688
   34PEN     C8 1196   1.435   1.289   1.911
   34PEN     C9 1197   1.576   1.148   2.055
   34PEN    H10 1198   1.755   1.100   1.968
   34PEN    C11 1199   1.834   1.279   1.508
   34PEN    C12 1200   1.613   1.354   1.589
   34PEN    H13 1201   1.435   1.405   1.673
   34PEN    H14 1202   1.354   1.336   1.898
   34PEN    C15 1203   1.452   1.221   2.032
   34PEN    C16 1204   1.593   1.081   2.178
   34PEN    C17 1205   1.813   1.344   1.391
   34PEN    H18 1206   1.916   1.233   1.522
   34PEN    C19 1207   1.596   1.420   1.464
   34PEN    C20 1208   1.354   1.222   2.134
   34PEN    C21 1209   1.496   1.083   2.277
   34PEN    H22 1210   1.674   1.032   2.193
   34PEN    C23 1211   1.691   1.415   1.368
   34PEN    H24 1212   1.880   1.341   1.323
   34PEN    H25 1213   1.515   1.468   1.447
   34PEN    H26 1214   1.272   1.268   2.119
   34PEN    C27 1215   1.373   1.156   2.254
   34PEN    C28 1216   1.513   1.017   2.402
   34PEN    H29 1217   1.677   1.460   1.285
   34PEN    C30 1218   1.275   1.157   2.358
   34PEN    C31 1219   1.418   1.022   2.498
   34PEN    H32 1220   1.594   0.969   2.419
   34PEN    C33 1221   1.296   1.093   2.475
   34PEN    H34 1222   1.193   1.204   2.344
   34PEN    H35 1223   1.431   0.977   2.581
   34PEN    H36 1224   1.229   1.095   2.543
   35PEN     C1 1225   1.402   0.893   0.626
   35PEN     C2 1226   1.303   0.894   0.728
   35PEN     C3 1227   1.526   0.821   0.650
   35PEN     C4 1228   1.385   0.961   0.505
   35PEN     C5 1229   1.323   0.828   0.848
   35PEN     H6 1230   1.222   0.941   0.714
   35PEN     C7 1231   1.543   0.753   0.772
   35PEN     C8 1232   1.624   0.820   0.549
   35PEN     C9 1233   1.482   0.961   0.405
   35PEN    H10 1234   1.303   1.009   0.492
   35PEN    C11 1235   1.225   0.830   0.952
   35PEN    C12 1236   1.446   0.756   0.871
   35PEN    H13 1237   1.623   0.704   0.787
   35PEN    H14 1238   1.705   0.773   0.562
   35PEN    C15 1239   1.607   0.888   0.428
   35PEN    C16 1240   1.465   1.029   0.282
   35PEN    C17 1241   1.246   0.765   1.069
   35PEN    H18 1242   1.143   0.877   0.938
   35PEN    C19 1243   1.463   0.690   0.996
   35PEN    C20 1244   1.705   0.888   0.326
   35PEN    C21 1245   1.563   1.026   0.183
   35PEN    H22 1246   1.385   1.077   0.267
   35PEN    C23 1247   1.367   0.694   1.092
   35PEN    H24 1248   1.179   0.768   1.137
   35PEN    H25 1249   1.544   0.641   1.013
   35PEN    H26 1250   1.787   0.841   0.340
   35PEN    C27 1251   1.686   0.953   0.206
   35PEN    C28 1252   1.545   1.092   0.058
   35PEN    H29 1253   1.381   0.649   1.175
   35PEN    C30 1254   1.784   0.952   0.102
   35PEN    C31 1255   1.641   1.088  -0.038
   35PEN    H32 1256   1.465   1.140   0.041
   35PEN    C33 1257   1.763   1.016  -0.015
   35PEN    H34 1258   1.866   0.905   0.116
   35PEN    H35 1259   1.627   1.132  -0.121
   35PEN    H36 1260   1.830   1.014  -0.083
   36PEN     C1 1261   1.552   1.877   4.843
   36PEN     C2 1262   1.454   1.877   4.945
   36PEN     C3 1263   1.677   1.804   4.867
   36PEN     C4 1264   1.535   1.945   4.722
   36PEN     C5 1265   1.473   1.811   5.065
   36PEN     H6 1266   1.372   1.924   4.931
   36PEN     C7 1267   1.694   1.736   4.989
   36PEN     C8 1268   1.774   1.803   4.766
   36PEN     C9 1269   1.633   1.944   4.622
   36PEN    H10 1270   1.454   1.992   4.709
   36PEN    C11 1271   1.375   1.813   5.169
   36PEN    C12 1272   1.596   1.739   5.088
   36PEN    H13 1273   1.774   1.687   5.004
   36PEN    H14 1274   1.856   1.756   4.779
   36PEN    C15 1275   1.757   1.871   4.645
   36PEN    C16 1276   1.616   2.012   4.499
   36PEN    C17 1277   1.396   1.748   5.286
   36PEN    H18 1278   1.294   1.860   5.155
   36PEN    C19 1279   1.614   1.673   5.213
   36PEN    C20 1280   1.856   1.871   4.543
   36PEN    C21 1281   1.713   2.009   4.400
   36PEN    H22 1282   1.536   2.060   4.484
   36PEN    C23 1283   1.518   1.677   5.309
   36PEN    H24 1284   1.329   1.751   5.354
   36PEN    H25 1285   1.694   1.625   5.230
   36PEN    H26 1286   1.937   1.824   4.558
   36PEN    C27 1287   1.836   1.937   4.423
   36PEN    C28 1288   1.696   2.075   4.275
   36PEN    H29 1289   1.532   1.632   5.392
   36PEN    C30 1290   1.934   1.935   4.319
   36PEN    C31 1291   1.792   2.071   4.179
   36PEN    H32 1292   1.616   2.123   4.258
   36PEN    C33 1293   1.913   1.999   4.202
   36PEN    H34 1294   2.016   1.888   4.333
   36PEN    H35 1295   1.778   2.115   4.096
   36PEN    H36 1296   1.980   1.997   4.134
   37PEN     C1 1297   1.731   1.984   1.834
   37PEN     C2 1298   1.829   1.983   1.732
   37PEN     C3 1299   1.606   2.056   1.810
   37PEN     C4 1300   1.748   1.916   1.955
   37PEN     C5 1301   1.809   2.049   1.612
   37PEN     H6 1302   1.910   1.936   1.746
   37PEN     C7 1303   1.589   2.124   1.688
   37PEN     C8 1304   1.509   2.057   1.911
   37PEN     C9 1305   1.650   1.916   2.055
   37PEN    H10 1306   1.829   1.868   1.968
   37PEN    C11 1307   1.908   2.047   1.508
   37PEN    C12 1308   1.686   2.121   1.589
   37PEN    H13 1309   1.509   2.173   1.673
   37PEN    H14 1310   1.427   2.104   1.898
   37PEN    C15 1311   1.526   1.989   2.032
   37PEN    C16 1312   1.667   1.848   2.178
   37PEN    C17 1313   1.887   2.112   1.391
   37PEN    H18 1314   1.989   2.000   1.522
   37PEN    C19 1315   1.669   2.187   1.464
   37PEN    C20 1316   1.427   1.989   2.134
   37PEN    C21 1317   1.570   1.851   2.277
   37PEN    H22 1318   1.747   1.800   2.193
   37PEN    C23 1319   1.765   2.183   1.368
   37PEN    H24 1320   1.953   2.109   1.323
   37PEN    H25 1321   1.589   2.236   1.447
   37PEN    H26 1322   1.346   2.036   2.119
   37PEN    C27 1323   1.447   1.924   2.254
   37PEN    C28 1324   1.587   1.785   2.402
   37PEN    H29 1325   1.751   2.228   1.285
   37PEN    C30 1326   1.348   1.925   2.358
   37PEN    C31 1327   1.491   1.789   2.498
   37PEN    H32 1328   1.667   1.737   2.419
   37PEN    C33 1329   1.369   1.861   2.475
   37PEN    H34 1330   1.267   1.972   2.344
   37PEN    H35 1331   1.505   1.745   2.581
   37PEN    H36 1332   1.303   1.863   2.543
   38PEN     C1 1333   1.576   2.317   3.438
   38PEN     C2 1334   1.477   2.317   3.540
   38PEN     C3 1335   1.700   2.244   3.461
   38PEN     C4 1336   1.559   2.385   3.316
   38PEN     C5 1337   1.497   2.251   3.660
   38PEN     H6 1338   1.396   2.364   3.525
   38PEN     C7 1339   1.717   2.176   3.583
   38PEN     C8 1340   1.798   2.243   3.361
   38PEN     C9 1341   1.656   2.384   3.216
   38PEN    H10 1342   1.477   2.432   3.303
   38PEN    C11 1343   1.398   2.253   3.763
   38PEN    C12 1344   1.620   2.179   3.682
   38PEN    H13 1345   1.797   2.127   3.599
   38PEN    H14 1346   1.879   2.196   3.374
   38PEN    C15 1347   1.781   2.311   3.239
   38PEN    C16 1348   1.639   2.452   3.094
   38PEN    C17 1349   1.420   2.189   3.881
   38PEN    H18 1350   1.317   2.300   3.750
   38PEN    C19 1351   1.637   2.113   3.808
   38PEN    C20 1352   1.879   2.311   3.137
   38PEN    C21 1353   1.736   2.449   2.995
   38PEN    H22 1354   1.559   2.501   3.078
   38PEN    C23 1355   1.541   2.117   3.904
   38PEN    H24 1356   1.353   2.191   3.948
   38PEN    H25 1357   1.717   2.065   3.824
   38PEN    H26 1358   1.961   2.264   3.152
   38PEN    C27 1359   1.860   2.377   3.017
   38PEN    C28 1360   1.719   2.515   2.869
   38PEN    H29 1361   1.555   2.073   3.986
   38PEN    C30 1362   1.958   2.375   2.914
   38PEN    C31 1363   1.815   2.511   2.773
   38PEN    H32 1364   1.639   2.563   2.853
   38PEN    C33 1365   1.937   2.439   2.796
   38PEN    H34 1366   2.039   2.328   2.927
   38PEN    H35 1367   1.801   2.555   2.691
   38PEN    H36 1368   2.004   2.437   2.729
   39PEN     C1 1369   1.626   2.644   4.843
   39PEN     C2 1370   1.527   2.645   4.945
   39PEN     C3 1371   1.750   2.571   4.867
   39PEN     C4 1372   1.609   2.712   4.722
   39PEN     C5 1373   1.547   2.579   5.065
   39PEN     H6 1374   1.446   2.692   4.931
   39PEN     C7 1375   1.767   2.504   4.989
   39PEN     C8 1376   1.848   2.571   4.766
   39PEN     C9 1377   1.706   2.712   4.622
   39PEN    H10 1378   1.527   2.760   4.709
   39PEN    C11 1379   1.449   2.581   5.169
   39PEN    C12 1380   1.670   2.506   5.088
   39PEN    H13 1381   1.847   2.455   5.004
   39PEN    H14 1382   1.929   2.524   4.779
   39PEN    C15 1383   1.831   2.639   4.645
   39PEN    C16 1384   1.689   2.780   4.499
   39PEN    C17 1385   1.470   2.516   5.286
   39PEN    H18 1386   1.367   2.627   5.155
   39PEN    C19 1387   1.687   2.441   5.213
   39PEN    C20 1388   1.929   2.638   4.543
   39PEN    C21 1389   1.787   2.777   4.400
   39PEN    H22 1390   1.609   2.828   4.484
   39PEN    C23 1391   1.591   2.445   5.309
   39PEN    H24 1392   1.403   2.519   5.354
   39PEN    H25 1393   1.768   2.392   5.230
   39PEN    H26 1394   2.011   2.592   4.558
   39PEN    C27 1395   1.910   2.704   4.423
   39PEN    C28 1396   1.769   2.843   4.275
   39PEN    H29 1397   1.605   2.400   5.392
   39PEN    C30 1398   2.008   2.703   4.319
   39PEN    C31 1399   1.865   2.838   4.179
   39PEN    H32 1400   1.689   2.891   4.258
   39PEN    C33 1401   1.987   2.767   4.202
   39PEN    H34 1402   2.090   2.656   4.333
   39PEN    H35 1403   1.851   2.883   4.096
   39PEN    H36 1404   2.054   2.765   4.134
   40PEN     C1 1405   1.699   3.412   4.843
   40PEN     C2 1406   1.601   3.413   4.945
   40PEN     C3 1407   1.824   3.339   4.867
   40PEN     C4 1408   1.682   3.480   4.722
   40PEN     C5 1409   1.621   3.347   5.065
   40PEN     H6 1410   1.520   3.459   4.931
   40PEN     C7 1411   1.841   3.272   4.989
   40PEN     C8 1412   1.921   3.339   4.766
   40PEN     C9 1413   1.780   3.480   4.622
   40PEN    H10 1414   1.601   3.527   4.709
   40PEN    C11 1415   1.522   3.348   5.169
   40PEN    C12 1416   1.744   3.274   5.088
   40PEN    H13 1417   1.921   3.223   5.004
   40PEN    H14 1418   2.003   3.292   4.779
   40PEN    C15 1419   1.904   3.407   4.645
   40PEN    C16 1420   1.763   3.547   4.499
   40PEN    C17 1421   1.543   3.284   5.286
   40PEN    H18 1422   1.441   3.395   5.155
   40PEN    C19 1423   1.761   3.208   5.213
   40PEN    C20 1424   2.003   3.406   4.543
   40PEN    C21 1425   1.860   3.545   4.400
   40PEN    H22 1426   1.683   3.596   4.484
   40PEN    C23 1427   1.665   3.213   5.309
   40PEN    H24 1428   1.477   3.286   5.354
   40PEN    H25 1429   1.841   3.160   5.230
   40PEN    H26 1430   2.084   3.360   4.558
   40PEN    C27 1431   1.983   3.472   4.423
   40PEN    C28 1432   1.843   3.611   4.275
   40PEN    H29 1433   1.679   3.168   5.392
   40PEN    C30 1434   2.082   3.471   4.319
   40PEN    C31 1435   1.939   3.606   4.179
   40PEN    H32 1436   1.763   3.659   4.258
   40PEN    C33 1437   2.061   3.535   4.202
   40PEN    H34 1438   2.163   3.424   4.333
   40PEN    H35 1439   1.925   3.651   4.096
   40PEN    H36 1440   2.127   3.533   4.134
   41PEN     C1 1441   1.804   2.751   1.834
   41PEN     C2 1442   1.903   2.751   1.732
   41PEN     C3 1443   1.680   2.824   1.810
   41PEN     C4 1444   1.821   2.683   1.955
   41PEN     C5 1445   1.883   2.817   1.612
   41PEN     H6 1446   1.984   2.704   1.746
   41PEN     C7 1447   1.663   2.892   1.688
   41PEN     C8 1448   1.582   2.825   1.911
   41PEN     C9 1449   1.724   2.684   2.055
   41PEN    H10 1450   1.903   2.636   1.968
   41PEN    C11 1451   1.981   2.815   1.508
   41PEN    C12 1452   1.760   2.889   1.589
   41PEN    H13 1453   1.583   2.941   1.673
   41PEN    H14 1454   1.501   2.872   1.898
   41PEN    C15 1455   1.599   2.757   2.032
   41PEN    C16 1456   1.741   2.616   2.178
   41PEN    C17 1457   1.960   2.880   1.391
   41PEN    H18 1458   2.063   2.768   1.522
   41PEN    C19 1459   1.743   2.955   1.464
   41PEN    C20 1460   1.501   2.757   2.134
   41PEN    C21 1461   1.643   2.619   2.277
   41PEN    H22 1462   1.821   2.568   2.193
   41PEN    C23 1463   1.839   2.951   1.368
   41PEN    H24 1464   2.027   2.877   1.323
   41PEN    H25 1465   1.663   3.003   1.447
   41PEN    H26 1466   1.419   2.804   2.119
   41PEN    C27 1467   1.520   2.691   2.254
   41PEN    C28 1468   1.661   2.553   2.402
   41PEN    H29 1469   1.825   2.995   1.285
   41PEN    C30 1470   1.422   2.693   2.358
   41PEN    C31 1471   1.565   2.557   2.498
   41PEN    H32 1472   1.741   2.505   2.419
   41PEN    C33 1473   1.443   2.629   2.475
   41PEN    H34 1474   1.340   2.740   2.344
   41PEN    H35 1475   1.579   2.513   2.581
   41PEN    H36 1476   1.376   2.631   2.543
   42PEN     C1 1477   1.549   2.429   0.626
   42PEN     C2 1478   1.451   2.430   0.728
   42PEN     C3 1479   1.674   2.356   0.650
   42PEN     C4 1480   1.532   2.497   0.505
   42PEN     C5 1481   1.470   2.364   0.848
   42PEN     H6 1482   1.369   2.476   0.714
   42PEN     C7 1483   1.691   2.289   0.772
   42PEN     C8 1484   1.771   2.356   0.549
   42PEN     C9 1485   1.630   2.497   0.405
   42PEN    H10 1486   1.451   2.544   0.492
   42PEN    C11 1487   1.372   2.365   0.952
   42PEN    C12 1488   1.593   2.291   0.871
   42PEN    H13 1489   1.771   2.240   0.787
   42PEN    H14 1490   1.852   2.308   0.562
   42PEN    C15 1491   1.754   2.424   0.428
   42PEN    C16 1492   1.613   2.564   0.282
   42PEN    C17 1493   1.393   2.301   1.069
   42PEN    H18 1494   1.290   2.412   0.938
   42PEN    C19 1495   1.610   2.225   0.996
   42PEN    C20 1496   1.852   2.423   0.326
   42PEN    C21 1497   1.710   2.562   0.183
   42PEN    H22 1498   1.532   2.613   0.267
   42PEN    C23 1499   1.515   2.230   1.092
   42PEN    H24 1500   1.326   2.303   1.137
   42PEN    H25 1501   1.691   2.177   1.013
   42PEN    H26 1502   1.934   2.376   0.340
   42PEN    C27 1503   1.833   2.489   0.206
   42PEN    C28 1504   1.693   2.628   0.058
   42PEN    H29 1505   1.529   2.185   1.175
   42PEN    C30 1506   1.931   2.488   0.102
   42PEN    C31 1507   1.788   2.623  -0.038
   42PEN    H32 1508   1.612   2.676   0.041
   42PEN    C33 1509   1.910   2.552  -0.015
   42PEN    H34 1510   2.013   2.441   0.116
   42PEN    H35 1511   1.775   2.668  -0.121
   42PEN    H36 1512   1.977   2.550  -0.083
   43PEN     C1 1513   1.680   1.656   0.428
   43PEN     C2 1514   1.779   1.655   0.326
   43PEN     C3 1515   1.556   1.729   0.405
   43PEN     C4 1516   1.697   1.588   0.549
   43PEN     C5 1517   1.759   1.721   0.206
   43PEN     H6 1518   1.860   1.609   0.340
   43PEN     C7 1519   1.539   1.796   0.282
   43PEN     C8 1520   1.458   1.729   0.505
   43PEN     C9 1521   1.600   1.588   0.650
   43PEN    H10 1522   1.779   1.541   0.562
   43PEN    C11 1523   1.858   1.720   0.102
   43PEN    C12 1524   1.636   1.794   0.183
   43PEN    H13 1525   1.459   1.845   0.267
   43PEN    H14 1526   1.377   1.777   0.492
   43PEN    C15 1527   1.475   1.661   0.626
   43PEN    C16 1528   1.617   1.521   0.772
   43PEN    C17 1529   1.837   1.784  -0.015
   43PEN    H18 1530   1.939   1.673   0.116
   43PEN    C19 1531   1.619   1.860   0.058
   43PEN    C20 1532   1.377   1.662   0.728
   43PEN    C21 1533   1.520   1.523   0.871
   43PEN    H22 1534   1.697   1.472   0.787
   43PEN    C23 1535   1.715   1.855  -0.038
   43PEN    H24 1536   1.903   1.782  -0.083
   43PEN    H25 1537   1.539   1.908   0.041
   43PEN    H26 1538   1.296   1.709   0.714
   43PEN    C27 1539   1.397   1.596   0.848
   43PEN    C28 1540   1.537   1.457   0.996
   43PEN    H29 1541   1.701   1.900  -0.121
   43PEN    C30 1542   1.298   1.598   0.952
   43PEN    C31 1543   1.441   1.462   1.092
   43PEN    H32 1544   1.617   1.409   1.013
   43PEN    C33 1545   1.319   1.533   1.069
   43PEN    H34 1546   1.217   1.644   0.938
   43PEN    H35 1547   1.455   1.417   1.175
   43PEN    H36 1548   1.253   1.536   1.137
   44PEN     C1 1549   1.854   3.079   3.239
   44PEN     C2 1550   1.953   3.079   3.137
   44PEN     C3 1551   1.730   3.152   3.216
   44PEN     C4 1552   1.871   3.011   3.361
   44PEN     C5 1553   1.933   3.145   3.017
   44PEN     H6 1554   2.034   3.032   3.152
   44PEN     C7 1555   1.713   3.220   3.094
   44PEN     C8 1556   1.632   3.153   3.316
   44PEN     C9 1557   1.774   3.012   3.461
   44PEN    H10 1558   1.953   2.964   3.374
   44PEN    C11 1559   2.032   3.143   2.914
   44PEN    C12 1560   1.810   3.217   2.995
   44PEN    H13 1561   1.633   3.268   3.078
   44PEN    H14 1562   1.551   3.200   3.303
   44PEN    C15 1563   1.649   3.085   3.438
   44PEN    C16 1564   1.791   2.944   3.583
   44PEN    C17 1565   2.010   3.207   2.796
   44PEN    H18 1566   2.113   3.096   2.927
   44PEN    C19 1567   1.793   3.283   2.869
   44PEN    C20 1568   1.551   3.085   3.540
   44PEN    C21 1569   1.694   2.947   3.682
   44PEN    H22 1570   1.871   2.895   3.599
   44PEN    C23 1571   1.889   3.279   2.773
   44PEN    H24 1572   2.077   3.205   2.729
   44PEN    H25 1573   1.713   3.331   2.853
   44PEN    H26 1574   1.469   3.132   3.525
   44PEN    C27 1575   1.570   3.019   3.660
   44PEN    C28 1576   1.711   2.881   3.808
   44PEN    H29 1577   1.875   3.323   2.691
   44PEN    C30 1578   1.472   3.021   3.763
   44PEN    C31 1579   1.615   2.885   3.904
   44PEN    H32 1580   1.791   2.833   3.824
   44PEN    C33 1581   1.493   2.956   3.881
   44PEN    H34 1582   1.391   3.068   3.750
   44PEN    H35 1583   1.629   2.840   3.986
   44PEN    H36 1584   1.427   2.959   3.948
   45PEN     C1 1585   1.429   0.781   3.438
   45PEN     C2 1586   1.330   0.781   3.540
   45PEN     C3 1587   1.553   0.708   3.461
   45PEN     C4 1588   1.411   0.849   3.316
   45PEN     C5 1589   1.350   0.716   3.660
   45PEN     H6 1590   1.249   0.828   3.525
   45PEN     C7 1591   1.570   0.640   3.583
   45PEN     C8 1592   1.651   0.708   3.361
   45PEN     C9 1593   1.509   0.848   3.216
   45PEN    H10 1594   1.330   0.896   3.303
   45PEN    C11 1595   1.251   0.717   3.763
   45PEN    C12 1596   1.473   0.643   3.682
   45PEN    H13 1597   1.650   0.592   3.599
   45PEN    H14 1598   1.732   0.660   3.374
   45PEN    C15 1599   1.633   0.776   3.239
   45PEN    C16 1600   1.492   0.916   3.094
   45PEN    C17 1601   1.272   0.653   3.881
   45PEN    H18 1602   1.170   0.764   3.750
   45PEN    C19 1603   1.490   0.577   3.808
   45PEN    C20 1604   1.732   0.775   3.137
   45PEN    C21 1605   1.589   0.913   2.995
   45PEN    H22 1606   1.412   0.965   3.078
   45PEN    C23 1607   1.394   0.581   3.904
   45PEN    H24 1608   1.206   0.655   3.948
   45PEN    H25 1609   1.570   0.529   3.824
   45PEN    H26 1610   1.813   0.728   3.152
   45PEN    C27 1611   1.712   0.841   3.017
   45PEN    C28 1612   1.572   0.979   2.869
   45PEN    H29 1613   1.408   0.537   3.986
   45PEN    C30 1614   1.811   0.839   2.914
   45PEN    C31 1615   1.668   0.975   2.773
   45PEN    H32 1616   1.492   1.028   2.853
   45PEN    C33 1617   1.790   0.904   2.796
   45PEN    H34 1618   1.892   0.792   2.927
   45PEN    H35 1619   1.654   1.020   2.691
   45PEN    H36 1620   1.856   0.901   2.729
   46PEN     C1 1621   1.378   0.453   2.032
   46PEN     C2 1622   1.280   0.454   2.134
   46PEN     C3 1623   1.503   0.380   2.055
   46PEN     C4 1624   1.361   0.521   1.911
   46PEN     C5 1625   1.300   0.388   2.254
   46PEN     H6 1626   1.199   0.501   2.119
   46PEN     C7 1627   1.520   0.313   2.178
   46PEN     C8 1628   1.600   0.380   1.955
   46PEN     C9 1629   1.459   0.521   1.810
   46PEN    H10 1630   1.280   0.569   1.898
   46PEN    C11 1631   1.201   0.390   2.358
   46PEN    C12 1632   1.423   0.315   2.277
   46PEN    H13 1633   1.600   0.264   2.193
   46PEN    H14 1634   1.682   0.333   1.968
   46PEN    C15 1635   1.583   0.448   1.834
   46PEN    C16 1636   1.442   0.588   1.688
   46PEN    C17 1637   1.222   0.325   2.475
   46PEN    H18 1638   1.120   0.436   2.344
   46PEN    C19 1639   1.440   0.249   2.402
   46PEN    C20 1640   1.682   0.447   1.732
   46PEN    C21 1641   1.539   0.586   1.589
   46PEN    H22 1642   1.362   0.637   1.673
   46PEN    C23 1643   1.344   0.254   2.498
   46PEN    H24 1644   1.156   0.327   2.543
   46PEN    H25 1645   1.520   0.201   2.419
   46PEN    H26 1646   1.763   0.401   1.746
   46PEN    C27 1647   1.662   0.513   1.612
   46PEN    C28 1648   1.522   0.652   1.464
   46PEN    H29 1649   1.358   0.209   2.581
   46PEN    C30 1650   1.761   0.512   1.508
   46PEN    C31 1651   1.618   0.647   1.368
   46PEN    H32 1652   1.442   0.700   1.447
   46PEN    C33 1653   1.740   0.576   1.391
   46PEN    H34 1654   1.842   0.465   1.522
   46PEN    H35 1655   1.604   0.692   1.285
   46PEN    H36 1656   1.806   0.574   1.323
   47PEN     C1 1657   1.533   0.120   0.428
   47PEN     C2 1658   1.632   0.120   0.326
   47PEN     C3 1659   1.409   0.193   0.405
   47PEN     C4 1660   1.550   0.052   0.549
   47PEN     C5 1661   1.612   0.186   0.206
   47PEN     H6 1662   1.713   0.073   0.340
   47PEN     C7 1663   1.392   0.261   0.282
   47PEN     C8 1664   1.311   0.194   0.505
   47PEN     C9 1665   1.453   0.053   0.650
   47PEN    H10 1666   1.632   0.005   0.562
   47PEN    C11 1667   1.710   0.184   0.102
   47PEN    C12 1668   1.489   0.258   0.183
   47PEN    H13 1669   1.312   0.310   0.267
   47PEN    H14 1670   1.230   0.241   0.492
   47PEN    C15 1671   1.328   0.126   0.626
   47PEN    C16 1672   1.470  -0.015   0.772
   47PEN    C17 1673   1.689   0.248  -0.015
   47PEN    H18 1674   1.792   0.137   0.116
   47PEN    C19 1675   1.472   0.324   0.058
   47PEN    C20 1676   1.230   0.126   0.728
   47PEN    C21 1677   1.372  -0.012   0.871
   47PEN    H22 1678   1.550  -0.064   0.787
   47PEN    C23 1679   1.568   0.320  -0.038
   47PEN    H24 1680   1.756   0.246  -0.083
   47PEN    H25 1681   1.392   0.372   0.041
   47PEN    H26 1682   1.148   0.173   0.714
   47PEN    C27 1683   1.249   0.060   0.848
   47PEN    C28 1684   1.390  -0.078   0.996
   47PEN    H29 1685   1.554   0.364  -0.121
   47PEN    C30 1686   1.151   0.062   0.952
   47PEN    C31 1687   1.294  -0.074   1.092
   47PEN    H32 1688   1.470  -0.126   1.013
   47PEN    C33 1689   1.172  -0.003   1.069
   47PEN    H34 1690   1.070   0.109   0.938
   47PEN    H35 1691   1.308  -0.118   1.175
   47PEN    H36 1692   1.105  -0.000   1.137
   48PEN     C1 1693   1.479   1.109   4.843
   48PEN     C2 1694   1.380   1.109   4.945
   48PEN     C3 1695   1.603   1.036   4.867
   48PEN     C4 1696   1.462   1.177   4.722
   48PEN     C5 1697   1.400   1.043   5.065
   48PEN     H6 1698   1.299   1.156   4.931
   48PEN     C7 1699   1.620   0.968   4.989
   48PEN     C8 1700   1.701   1.035   4.766
   48PEN     C9 1701   1.559   1.176   4.622
   48PEN    H10 1702   1.380   1.224   4.709
   48PEN    C11 1703   1.301   1.045   5.169
   48PEN    C12 1704   1.523   0.971   5.088
   48PEN    H13 1705   1.700   0.919   5.004
   48PEN    H14 1706   1.782   0.988   4.779
   48PEN    C15 1707   1.684   1.103   4.645
   48PEN    C16 1708   1.542   1.244   4.499
   48PEN    C17 1709   1.322   0.981   5.286
   48PEN    H18 1710   1.220   1.092   5.155
   48PEN    C19 1711   1.540   0.905   5.213
   48PEN    C20 1712   1.782   1.103   4.543
   48PEN    C21 1713   1.639   1.241   4.400
   48PEN    H22 1714   1.462   1.293   4.484
   48PEN    C23 1715   1.444   0.909   5.309
   48PEN    H24 1716   1.256   0.983   5.354
   48PEN    H25 1717   1.620   0.857   5.230
   48PEN    H26 1718   1.863   1.056   4.558
   48PEN    C27 1719   1.762   1.169   4.423
   48PEN    C28 1720   1.622   1.307   4.275
   48PEN    H29 1721   1.458   0.865   5.392
   48PEN    C30 1722   1.861   1.167   4.319
   48PEN    C31 1723   1.718   1.303   4.179
   48PEN    H32 1724   1.542   1.355   4.258
   48PEN    C33 1725   1.840   1.231   4.202
   48PEN    H34 1726   1.942   1.120   4.333
   48PEN    H35 1727   1.704   1.347   4.096
   48PEN    H36 1728   1.906   1.229   4.134
   49PEN     C1 1729   0.728   1.220   3.258
   49PEN     C2 1730   0.827   1.277   3.175
   49PEN     C3 1731   0.605   1.171   3.197
   49PEN     C4 1732   0.746   1.209   3.397
   49PEN     C5 1733   0.809   1.287   3.037
   49PEN     H6 1734   0.908   1.309   3.214
   49PEN     C7 1735   0.589   1.183   3.058
   49PEN     C8 1736   0.507   1.115   3.280
   49PEN     C9 1737   0.648   1.154   3.480
   49PEN    H10 1738   0.827   1.241   3.434
   49PEN    C11 1739   0.909   1.345   2.951
   49PEN    C12 1740   0.687   1.239   2.977
   49PEN    H13 1741   0.509   1.151   3.018
   49PEN    H14 1742   0.426   1.083   3.243
   49PEN    C15 1743   0.525   1.105   3.419
   49PEN    C16 1744   0.664   1.142   3.619
   49PEN    C17 1745   0.889   1.355   2.817
   49PEN    H18 1746   0.990   1.378   2.988
   49PEN    C19 1747   0.671   1.252   2.835
   49PEN    C20 1748   0.426   1.048   3.502
   49PEN    C21 1749   0.566   1.085   3.700
   49PEN    H22 1750   0.744   1.173   3.659
   49PEN    C23 1751   0.769   1.307   2.759
   49PEN    H24 1752   0.956   1.394   2.762
   49PEN    H25 1753   0.591   1.221   2.794
   49PEN    H26 1754   0.345   1.016   3.463
   49PEN    C27 1755   0.444   1.038   3.640
   49PEN    C28 1756   0.582   1.073   3.842
   49PEN    H29 1757   0.756   1.313   2.665
   49PEN    C30 1758   0.344   0.979   3.726
   49PEN    C31 1759   0.484   1.018   3.918
   49PEN    H32 1760   0.662   1.103   3.883
   49PEN    C33 1761   0.364   0.969   3.860
   49PEN    H34 1762   0.263   0.947   3.689
   49PEN    H35 1763   0.497   1.011   4.012
   49PEN    H36 1764   0.297   0.930   3.915
   50PEN     C1 1765   0.475   0.777   2.013
   50PEN     C2 1766   0.376   0.720   2.097
   50PEN     C3 1767   0.598   0.826   2.074
   50PEN     C4 1768   0.457   0.787   1.875
   50PEN     C5 1769   0.393   0.710   2.234
   50PEN     H6 1770   0.295   0.688   2.058
   50PEN     C7 1771   0.613   0.814   2.213
   50PEN     C8 1772   0.696   0.882   1.991
   50PEN     C9 1773   0.555   0.843   1.792
   50PEN    H10 1774   0.375   0.756   1.838
   50PEN    C11 1775   0.294   0.651   2.320
   50PEN    C12 1776   0.516   0.757   2.294
   50PEN    H13 1777   0.694   0.846   2.253
   50PEN    H14 1778   0.777   0.913   2.028
   50PEN    C15 1779   0.678   0.892   1.852
   50PEN    C16 1780   0.539   0.855   1.653
   50PEN    C17 1781   0.314   0.642   2.454
   50PEN    H18 1782   0.213   0.619   2.283
   50PEN    C19 1783   0.532   0.745   2.436
   50PEN    C20 1784   0.777   0.949   1.769
   50PEN    C21 1785   0.637   0.912   1.572
   50PEN    H22 1786   0.459   0.823   1.612
   50PEN    C23 1787   0.434   0.690   2.513
   50PEN    H24 1788   0.247   0.602   2.509
   50PEN    H25 1789   0.612   0.776   2.478
   50PEN    H26 1790   0.858   0.981   1.808
   50PEN    C27 1791   0.759   0.959   1.631
   50PEN    C28 1792   0.620   0.924   1.429
   50PEN    H29 1793   0.446   0.683   2.607
   50PEN    C30 1794   0.859   1.018   1.545
   50PEN    C31 1795   0.718   0.979   1.353
   50PEN    H32 1796   0.541   0.893   1.388
   50PEN    C33 1797   0.839   1.027   1.412
   50PEN    H34 1798   0.940   1.050   1.583
   50PEN    H35 1799   0.706   0.986   1.259
   50PEN    H36 1800   0.906   1.067   1.357
   51PEN     C1 1801   1.680   0.449   0.608
   51PEN     C2 1802   1.580   0.392   0.691
   51PEN     C3 1803   1.803   0.498   0.668
   51PEN     C4 1804   1.662   0.460   0.469
   51PEN     C5 1805   1.598   0.382   0.829
   51PEN     H6 1806   1.500   0.360   0.652
   51PEN     C7 1807   1.818   0.486   0.807
   51PEN     C8 1808   1.901   0.554   0.585
   51PEN     C9 1809   1.760   0.515   0.386
   51PEN    H10 1810   1.580   0.428   0.432
   51PEN    C11 1811   1.499   0.324   0.915
   51PEN    C12 1812   1.721   0.430   0.888
   51PEN    H13 1813   1.899   0.518   0.847
   51PEN    H14 1814   1.982   0.586   0.622
   51PEN    C15 1815   1.883   0.564   0.446
   51PEN    C16 1816   1.744   0.527   0.247
   51PEN    C17 1817   1.519   0.314   1.048
   51PEN    H18 1818   1.418   0.291   0.877
   51PEN    C19 1819   1.737   0.417   1.031
   51PEN    C20 1820   1.982   0.621   0.363
   51PEN    C21 1821   1.842   0.584   0.166
   51PEN    H22 1822   1.664   0.496   0.207
   51PEN    C23 1823   1.639   0.362   1.107
   51PEN    H24 1824   1.452   0.275   1.103
   51PEN    H25 1825   1.817   0.448   1.072
   51PEN    H26 1826   2.063   0.653   0.402
   51PEN    C27 1827   1.964   0.631   0.226
   51PEN    C28 1828   1.825   0.596   0.024
   51PEN    H29 1829   1.651   0.356   1.201
   51PEN    C30 1830   2.064   0.690   0.139
   51PEN    C31 1831   1.923   0.651  -0.053
   51PEN    H32 1832   1.745   0.566  -0.018
   51PEN    C33 1833   2.044   0.700   0.006
   51PEN    H34 1834   2.145   0.722   0.177
   51PEN    H35 1835   1.911   0.658  -0.147
   51PEN    H36 1836   2.111   0.739  -0.049
   52PEN     C1 1837   0.575   1.432   4.825
   52PEN     C2 1838   0.476   1.375   4.908
   52PEN     C3 1839   0.698   1.481   4.885
   52PEN     C4 1840   0.557   1.443   4.686
   52PEN     C5 1841   0.494   1.365   5.046
   52PEN     H6 1842   0.395   1.343   4.869
   52PEN     C7 1843   0.714   1.469   5.024
   52PEN     C8 1844   0.796   1.537   4.802
   52PEN     C9 1845   0.655   1.498   4.603
   52PEN    H10 1846   0.476   1.411   4.649
   52PEN    C11 1847   0.394   1.307   5.132
   52PEN    C12 1848   0.616   1.413   5.105
   52PEN    H13 1849   0.794   1.501   5.065
   52PEN    H14 1850   0.878   1.569   4.839
   52PEN    C15 1851   0.778   1.547   4.663
   52PEN    C16 1852   0.640   1.510   4.464
   52PEN    C17 1853   0.414   1.297   5.265
   52PEN    H18 1854   0.313   1.274   5.094
   52PEN    C19 1855   0.633   1.400   5.248
   52PEN    C20 1856   0.877   1.604   4.580
   52PEN    C21 1857   0.737   1.567   4.383
   52PEN    H22 1858   0.559   1.479   4.424
   52PEN    C23 1859   0.535   1.345   5.324
   52PEN    H24 1860   0.347   1.258   5.320
   52PEN    H25 1861   0.712   1.431   5.289
   52PEN    H26 1862   0.958   1.636   4.619
   52PEN    C27 1863   0.860   1.614   4.443
   52PEN    C28 1864   0.721   1.579   4.241
   52PEN    H29 1865   0.547   1.339   5.418
   52PEN    C30 1866   0.959   1.673   4.356
   52PEN    C31 1867   0.819   1.635   4.164
   52PEN    H32 1868   0.641   1.549   4.199
   52PEN    C33 1869   0.939   1.683   4.223
   52PEN    H34 1870   1.040   1.705   4.394
   52PEN    H35 1871   0.807   1.641   4.070
   52PEN    H36 1872   1.006   1.722   4.168
   53PEN     C1 1873   0.628   0.564   0.446
   53PEN     C2 1874   0.727   0.621   0.363
   53PEN     C3 1875   0.505   0.515   0.386
   53PEN     C4 1876   0.646   0.554   0.585
   53PEN     C5 1877   0.709   0.631   0.226
   53PEN     H6 1878   0.808   0.653   0.402
   53PEN     C7 1879   0.489   0.527   0.247
   53PEN     C8 1880   0.407   0.460   0.469
   53PEN     C9 1881   0.548   0.498   0.668
   53PEN    H10 1882   0.727   0.586   0.622
   53PEN    C11 1883   0.809   0.690   0.139
   53PEN    C12 1884   0.587   0.584   0.166
   53PEN    H13 1885   0.409   0.496   0.207
   53PEN    H14 1886   0.325   0.428   0.432
   53PEN    C15 1887   0.425   0.449   0.608
   53PEN    C16 1888   0.563   0.486   0.807
   53PEN    C17 1889   0.789   0.700   0.006
   53PEN    H18 1890   0.890   0.722   0.177
   53PEN    C19 1891   0.570   0.596   0.024
   53PEN    C20 1892   0.325   0.392   0.691
   53PEN    C21 1893   0.466   0.430   0.888
   53PEN    H22 1894   0.643   0.518   0.847
   53PEN    C23 1895   0.668   0.651  -0.053
   53PEN    H24 1896   0.856   0.739  -0.049
   53PEN    H25 1897   0.490   0.566  -0.018
   53PEN    H26 1898   0.245   0.360   0.652
   53PEN    C27 1899   0.343   0.382   0.829
   53PEN    C28 1900   0.482   0.417   1.031
   53PEN    H29 1901   0.656   0.658  -0.147
   53PEN    C30 1902   0.244   0.324   0.915
   53PEN    C31 1903   0.384   0.362   1.107
   53PEN    H32 1904   0.562   0.448   1.072
   53PEN    C33 1905   0.263   0.314   1.048
   53PEN    H34 1906   0.163   0.291   0.877
   53PEN    H35 1907   0.396   0.356   1.201
   53PEN    H36 1908   0.197   0.275   1.103
   54PEN     C1 1909   0.802   1.987   3.258
   54PEN     C2 1910   0.901   2.045   3.175
   54PEN     C3 1911   0.679   1.939   3.197
   54PEN     C4 1912   0.820   1.977   3.397
   54PEN     C5 1913   0.883   2.055   3.037
   54PEN     H6 1914   0.981   2.077   3.214
   54PEN     C7 1915   0.663   1.951   3.058
   54PEN     C8 1916   0.581   1.883   3.280
   54PEN     C9 1917   0.722   1.921   3.480
   54PEN    H10 1918   0.901   2.009   3.434
   54PEN    C11 1919   0.983   2.113   2.951
   54PEN    C12 1920   0.761   2.007   2.977
   54PEN    H13 1921   0.583   1.919   3.018
   54PEN    H14 1922   0.499   1.851   3.243
   54PEN    C15 1923   0.598   1.873   3.419
   54PEN    C16 1924   0.737   1.910   3.619
   54PEN    C17 1925   0.963   2.123   2.817
   54PEN    H18 1926   1.064   2.146   2.988
   54PEN    C19 1927   0.744   2.020   2.835
   54PEN    C20 1928   0.499   1.816   3.502
   54PEN    C21 1929   0.640   1.853   3.700
   54PEN    H22 1930   0.817   1.941   3.659
   54PEN    C23 1931   0.842   2.075   2.759
   54PEN    H24 1932   1.030   2.162   2.762
   54PEN    H25 1933   0.664   1.989   2.794
   54PEN    H26 1934   0.419   1.783   3.463
   54PEN    C27 1935   0.517   1.805   3.640
   54PEN    C28 1936   0.656   1.840   3.842
   54PEN    H29 1937   0.830   2.081   2.665
   54PEN    C30 1938   0.418   1.747   3.726
   54PEN    C31 1939   0.558   1.785   3.918
   54PEN    H32 1940   0.736   1.871   3.883
   54PEN    C33 1941   0.437   1.737   3.860
   54PEN    H34 1942   0.337   1.714   3.689
   54PEN    H35 1943   0.570   1.779   4.012
   54PEN    H36 1944   0.371   1.698   3.915
   55PEN     C1 1945   0.852   2.315   4.663
   55PEN     C2 1946   0.951   2.372   4.580
   55PEN     C3 1947   0.729   2.266   4.603
   55PEN     C4 1948   0.870   2.305   4.802
   55PEN     C5 1949   0.933   2.382   4.443
   55PEN     H6 1950   1.032   2.404   4.619
   55PEN     C7 1951   0.713   2.278   4.464
   55PEN     C8 1952   0.631   2.211   4.686
   55PEN     C9 1953   0.772   2.249   4.885
   55PEN    H10 1954   0.951   2.337   4.839
   55PEN    C11 1955   1.033   2.441   4.356
   55PEN    C12 1956   0.811   2.335   4.383
   55PEN    H13 1957   0.633   2.246   4.424
   55PEN    H14 1958   0.549   2.179   4.649
   55PEN    C15 1959   0.649   2.200   4.825
   55PEN    C16 1960   0.787   2.237   5.024
   55PEN    C17 1961   1.013   2.451   4.223
   55PEN    H18 1962   1.114   2.473   4.394
   55PEN    C19 1963   0.794   2.347   4.241
   55PEN    C20 1964   0.549   2.143   4.908
   55PEN    C21 1965   0.690   2.181   5.105
   55PEN    H22 1966   0.867   2.269   5.065
   55PEN    C23 1967   0.892   2.402   4.164
   55PEN    H24 1968   1.080   2.490   4.168
   55PEN    H25 1969   0.714   2.317   4.199
   55PEN    H26 1970   0.469   2.111   4.869
   55PEN    C27 1971   0.567   2.133   5.046
   55PEN    C28 1972   0.706   2.168   5.248
   55PEN    H29 1973   0.880   2.409   4.070
   55PEN    C30 1974   0.468   2.075   5.132
   55PEN    C31 1975   0.608   2.113   5.324
   55PEN    H32 1976   0.786   2.199   5.289
   55PEN    C33 1977   0.487   2.065   5.265
   55PEN    H34 1978   0.387   2.042   5.094
   55PEN    H35 1979   0.620   2.107   5.418
   55PEN    H36 1980   0.421   2.026   5.320
   56PEN     C1 1981   0.701   1.332   0.446
   56PEN     C2 1982   0.801   1.389   0.363
   56PEN     C3 1983   0.578   1.283   0.386
   56PEN     C4 1984   0.719   1.322   0.585
   56PEN     C5 1985   0.783   1.399   0.226
   56PEN     H6 1986   0.881   1.421   0.402
   56PEN     C7 1987   0.563   1.295   0.247
   56PEN     C8 1988   0.480   1.228   0.469
   56PEN     C9 1989   0.621   1.266   0.668
   56PEN    H10 1990   0.801   1.354   0.622
   56PEN    C11 1991   0.882   1.458   0.139
   56PEN    C12 1992   0.660   1.352   0.166
   56PEN    H13 1993   0.483   1.263   0.207
   56PEN    H14 1994   0.399   1.196   0.432
   56PEN    C15 1995   0.498   1.217   0.608
   56PEN    C16 1996   0.637   1.254   0.807
   56PEN    C17 1997   0.863   1.468   0.006
   56PEN    H18 1998   0.963   1.490   0.177
   56PEN    C19 1999   0.644   1.364   0.024
   56PEN    C20 2000   0.399   1.160   0.691
   56PEN    C21 2001   0.539   1.198   0.888
   56PEN    H22 2002   0.717   1.286   0.847
   56PEN    C23 2003   0.742   1.419  -0.053
   56PEN    H24 2004   0.929   1.507  -0.049
   56PEN    H25 2005   0.564   1.334  -0.018
   56PEN    H26 2006   0.319   1.128   0.652
   56PEN    C27 2007   0.417   1.150   0.829
   56PEN    C28 2008   0.556   1.185   1.031
   56PEN    H29 2009   0.730   1.426  -0.147
   56PEN    C30 2010   0.317   1.091   0.915
   56PEN    C31 2011   0.458   1.130   1.107
   56PEN    H32 2012   0.636   1.216   1.072
   56PEN    C33 2013   0.337   1.082   1.048
   56PEN    H34 2014   0.236   1.059   0.877
   56PEN    H35 2015   0.470   1.124   1.201
   56PEN    H36 2016   0.270   1.043   1.103
   57PEN     C1 2017   1.753   1.217   0.608
   57PEN     C2 2018   1.654   1.160   0.691
   57PEN     C3 2019   1.876   1.266   0.668
   57PEN     C4 2020   1.735   1.228   0.469
   57PEN     C5 2021   1.672   1.150   0.829
   57PEN     H6 2022   1.574   1.128   0.652
   57PEN     C7 2023   1.892   1.254   0.807
   57PEN     C8 2024   1.974   1.322   0.585
   57PEN     C9 2025   1.833   1.283   0.386
   57PEN    H10 2026   1.654   1.196   0.432
   57PEN    C11 2027   1.572   1.091   0.915
   57PEN    C12 2028   1.794   1.198   0.888
   57PEN    H13 2029   1.972   1.286   0.847
   57PEN    H14 2030   2.056   1.354   0.622
   57PEN    C15 2031   1.957   1.332   0.446
   57PEN    C16 2032   1.818   1.295   0.247
   57PEN    C17 2033   1.592   1.082   1.048
   57PEN    H18 2034   1.491   1.059   0.877
   57PEN    C19 2035   1.811   1.185   1.031
   57PEN    C20 2036   2.056   1.389   0.363
   57PEN    C21 2037   1.915   1.352   0.166
   57PEN    H22 2038   1.738   1.263   0.207
   57PEN    C23 2039   1.713   1.130   1.107
   57PEN    H24 2040   1.525   1.043   1.103
   57PEN    H25 2041   1.891   1.216   1.072
   57PEN    H26 2042   2.136   1.421   0.402
   57PEN    C27 2043   2.038   1.399   0.226
   57PEN    C28 2044   1.899   1.364   0.024
   57PEN    H29 2045   1.725   1.124   1.201
   57PEN    C30 2046   2.137   1.458   0.139
   57PEN    C31 2047   1.997   1.419  -0.053
   57PEN    H32 2048   1.819   1.334  -0.018
   57PEN    C33 2049   2.118   1.468   0.006
   57PEN    H34 2050   2.218   1.490   0.177
   57PEN    H35 2051   1.985   1.426  -0.147
   57PEN    H36 2052   2.185   1.507  -0.049
   58PEN     C1 2053   0.572   1.985   0.608
   58PEN     C2 2054   0.473   1.928   0.691
   58PEN     C3 2055   0.695   2.034   0.668
   58PEN     C4 2056   0.554   1.995   0.469
   58PEN     C5 2057   0.491   1.918   0.829
   58PEN     H6 2058   0.392   1.896   0.652
   58PEN     C7 2059   0.711   2.022   0.807
   58PEN     C8 2060   0.793   2.090   0.585
   58PEN     C9 2061   0.652   2.051   0.386
   58PEN    H10 2062   0.473   1.964   0.432
   58PEN    C11 2063   0.391   1.859   0.915
   58PEN    C12 2064   0.613   1.965   0.888
   58PEN    H13 2065   0.791   2.054   0.847
   58PEN    H14 2066   0.874   2.121   0.622
   58PEN    C15 2067   0.775   2.100   0.446
   58PEN    C16 2068   0.636   2.063   0.247
   58PEN    C17 2069   0.411   1.850   1.048
   58PEN    H18 2070   0.310   1.827   0.877
   58PEN    C19 2071   0.629   1.953   1.031
   58PEN    C20 2072   0.874   2.157   0.363
   58PEN    C21 2073   0.734   2.120   0.166
   58PEN    H22 2074   0.556   2.031   0.207
   58PEN    C23 2075   0.531   1.898   1.107
   58PEN    H24 2076   0.344   1.810   1.103
   58PEN    H25 2077   0.709   1.984   1.072
   58PEN    H26 2078   0.955   2.189   0.402
   58PEN    C27 2079   0.856   2.167   0.226
   58PEN    C28 2080   0.718   2.132   0.024
   58PEN    H29 2081   0.544   1.891   1.201
   58PEN    C30 2082   0.956   2.226   0.139
   58PEN    C31 2083   0.815   2.187  -0.053
   58PEN    H32 2084   0.638   2.101  -0.018
   58PEN    C33 2085   0.936   2.235   0.006
   58PEN    H34 2086   1.037   2.258   0.177
   58PEN    H35 2087   0.803   2.194  -0.147
   58PEN    H36 2088   1.003   2.275  -0.049
   59PEN     C1 2089   0.722   2.968   4.825
   59PEN     C2 2090   0.623   2.911   4.908
   59PEN     C3 2091   0.845   3.017   4.885
   59PEN     C4 2092   0.704   2.978   4.686
   59PEN     C5 2093   0.641   2.901   5.046
   59PEN     H6 2094   0.542   2.879   4.869
   59PEN     C7 2095   0.861   3.005   5.024
   59PEN     C8 2096   0.943   3.073   4.802
   59PEN     C9 2097   0.802   3.034   4.603
   59PEN    H10 2098   0.623   2.947   4.649
   59PEN    C11 2099   0.541   2.842   5.132
   59PEN    C12 2100   0.763   2.949   5.105
   59PEN    H13 2101   0.941   3.037   5.065
   59PEN    H14 2102   1.025   3.104   4.839
   59PEN    C15 2103   0.925   3.083   4.663
   59PEN    C16 2104   0.787   3.046   4.464
   59PEN    C17 2105   0.561   2.833   5.265
   59PEN    H18 2106   0.460   2.810   5.094
   59PEN    C19 2107   0.780   2.936   5.248
   59PEN    C20 2108   1.025   3.140   4.580
   59PEN    C21 2109   0.884   3.103   4.383
   59PEN    H22 2110   0.707   3.014   4.424
   59PEN    C23 2111   0.682   2.881   5.324
   59PEN    H24 2112   0.494   2.793   5.320
   59PEN    H25 2113   0.860   2.967   5.289
   59PEN    H26 2114   1.105   3.172   4.619
   59PEN    C27 2115   1.007   3.150   4.443
   59PEN    C28 2116   0.868   3.115   4.241
   59PEN    H29 2117   0.694   2.874   5.418
   59PEN    C30 2118   1.106   3.209   4.356
   59PEN    C31 2119   0.966   3.170   4.164
   59PEN    H32 2120   0.788   3.085   4.199
   59PEN    C33 2121   1.087   3.219   4.223
   59PEN    H34 2122   1.187   3.241   4.394
   59PEN    H35 2123   0.954   3.177   4.070
   59PEN    H36 2124   1.153   3.258   4.168
   60PEN     C1 2125   0.825   2.428   1.852
   60PEN     C2 2126   0.924   2.485   1.769
   60PEN     C3 2127   0.702   2.379   1.792
   60PEN     C4 2128   0.843   2.417   1.991
   60PEN     C5 2129   0.907   2.495   1.631
   60PEN     H6 2130   1.005   2.517   1.808
   60PEN     C7 2131   0.687   2.391   1.653
   60PEN     C8 2132   0.604   2.323   1.875
   60PEN     C9 2133   0.745   2.362   2.074
   60PEN    H10 2134   0.925   2.449   2.028
   60PEN    C11 2135   1.006   2.553   1.545
   60PEN    C12 2136   0.784   2.447   1.572
   60PEN    H13 2137   0.606   2.359   1.612
   60PEN    H14 2138   0.523   2.291   1.838
   60PEN    C15 2139   0.622   2.313   2.013
   60PEN    C16 2140   0.761   2.350   2.213
   60PEN    C17 2141   0.986   2.563   1.412
   60PEN    H18 2142   1.087   2.586   1.583
   60PEN    C19 2143   0.768   2.460   1.429
   60PEN    C20 2144   0.523   2.256   2.097
   60PEN    C21 2145   0.663   2.293   2.294
   60PEN    H22 2146   0.841   2.381   2.253
   60PEN    C23 2147   0.866   2.515   1.353
   60PEN    H24 2148   1.053   2.602   1.357
   60PEN    H25 2149   0.688   2.429   1.388
   60PEN    H26 2150   0.442   2.224   2.058
   60PEN    C27 2151   0.541   2.246   2.234
   60PEN    C28 2152   0.679   2.281   2.436
   60PEN    H29 2153   0.853   2.521   1.259
   60PEN    C30 2154   0.441   2.187   2.320
   60PEN    C31 2155   0.582   2.226   2.513
   60PEN    H32 2156   0.759   2.311   2.478
   60PEN    C33 2157   0.461   2.177   2.454
   60PEN    H34 2158   0.360   2.155   2.283
   60PEN    H35 2159   0.594   2.219   2.607
   60PEN    H36 2160   0.394   2.138   2.509
   61PEN     C1 2161   0.875   2.755   3.258
   61PEN     C2 2162   0.975   2.812   3.175
   61PEN     C3 2163   0.752   2.706   3.197
   61PEN     C4 2164   0.893   2.745   3.397
   61PEN     C5 2165   0.957   2.823   3.037
   61PEN     H6 2166   1.055   2.845   3.214
   61PEN     C7 2167   0.737   2.718   3.058
   61PEN     C8 2168   0.654   2.651   3.280
   61PEN     C9 2169   0.795   2.689   3.480
   61PEN    H10 2170   0.975   2.777   3.434
   61PEN    C11 2171   1.056   2.881   2.951
   61PEN    C12 2172   0.834   2.775   2.977
   61PEN    H13 2173   0.656   2.687   3.018
   61PEN    H14 2174   0.573   2.619   3.243
   61PEN    C15 2175   0.672   2.641   3.419
   61PEN    C16 2176   0.811   2.677   3.619
   61PEN    C17 2177   1.036   2.891   2.817
   61PEN    H18 2178   1.137   2.914   2.988
   61PEN    C19 2179   0.818   2.787   2.835
   61PEN    C20 2180   0.573   2.583   3.502
   61PEN    C21 2181   0.713   2.621   3.700
   61PEN    H22 2182   0.891   2.709   3.659
   61PEN    C23 2183   0.916   2.843   2.759
   61PEN    H24 2184   1.103   2.930   2.762
   61PEN    H25 2185   0.738   2.757   2.794
   61PEN    H26 2186   0.492   2.551   3.463
   61PEN    C27 2187   0.591   2.573   3.640
   61PEN    C28 2188   0.730   2.608   3.842
   61PEN    H29 2189   0.904   2.849   2.665
   61PEN    C30 2190   0.491   2.515   3.726
   61PEN    C31 2191   0.632   2.553   3.918
   61PEN    H32 2192   0.810   2.639   3.883
   61PEN    C33 2193   0.511   2.505   3.860
   61PEN    H34 2194   0.410   2.482   3.689
   61PEN    H35 2195   0.644   2.547   4.012
   61PEN    H36 2196   0.444   2.466   3.915
   62PEN     C1 2197   1.901   2.753   0.608
   62PEN     C2 2198   1.801   2.696   0.691
   62PEN     C3 2199   2.024   2.802   0.668
   62PEN     C4 2200   1.883   2.763   0.469
   62PEN     C5 2201   1.819   2.686   0.829
   62PEN     H6 2202   1.721   2.664   0.652
   62PEN     C7 2203   2.039   2.790   0.807
   62PEN     C8 2204   2.122   2.858   0.585
   62PEN     C9 2205   1.981   2.819   0.386
   62PEN    H10 2206   1.801   2.732   0.432
   62PEN    C11 2207   1.720   2.627   0.915
   62PEN    C12 2208   1.942   2.733   0.888
   62PEN    H13 2209   2.119   2.822   0.847
   62PEN    H14 2210   2.203   2.889   0.622
   62PEN    C15 2211   2.104   2.868   0.446
   62PEN    C16 2212   1.965   2.831   0.247
   62PEN    C17 2213   1.739   2.617   1.048
   62PEN    H18 2214   1.639   2.595   0.877
   62PEN    C19 2215   1.958   2.721   1.031
   62PEN    C20 2216   2.203   2.925   0.363
   62PEN    C21 2217   2.063   2.887   0.166
   62PEN    H22 2218   1.885   2.799   0.207
   62PEN    C23 2219   1.860   2.666   1.107
   62PEN    H24 2220   1.673   2.578   1.103
   62PEN    H25 2221   2.038   2.751   1.072
   62PEN    H26 2222   2.283   2.957   0.402
   62PEN    C27 2223   2.185   2.935   0.226
   62PEN    C28 2224   2.046   2.900   0.024
   62PEN    H29 2225   1.872   2.659   1.201
   62PEN    C30 2226   2.285   2.994   0.139
   62PEN    C31 2227   2.144   2.955  -0.053
   62PEN    H32 2228   1.966   2.869  -0.018
   62PEN    C33 2229   2.265   3.003   0.006
   62PEN    H34 2230   2.366   3.026   0.177
   62PEN    H35 2231   2.132   2.962  -0.147
   62PEN    H36 2232   2.332   3.042  -0.049
   63PEN     C1 2233   0.696   3.081   2.013
   63PEN     C2 2234   0.596   3.024   2.097
   63PEN     C3 2235   0.819   3.130   2.074
   63PEN     C4 2236   0.678   3.091   1.875
   63PEN     C5 2237   0.614   3.013   2.234
   63PEN     H6 2238   0.516   2.991   2.058
   63PEN     C7 2239   0.834   3.118   2.213
   63PEN     C8 2240   0.917   3.185   1.991
   63PEN     C9 2241   0.776   3.147   1.792
   63PEN    H10 2242   0.596   3.059   1.838
   63PEN    C11 2243   0.515   2.955   2.320
   63PEN    C12 2244   0.737   3.061   2.294
   63PEN    H13 2245   0.914   3.149   2.253
   63PEN    H14 2246   0.998   3.217   2.028
   63PEN    C15 2247   0.899   3.195   1.852
   63PEN    C16 2248   0.760   3.159   1.653
   63PEN    C17 2249   0.534   2.945   2.454
   63PEN    H18 2250   0.434   2.922   2.283
   63PEN    C19 2251   0.753   3.049   2.436
   63PEN    C20 2252   0.998   3.253   1.769
   63PEN    C21 2253   0.858   3.215   1.572
   63PEN    H22 2254   0.680   3.127   1.612
   63PEN    C23 2255   0.655   2.993   2.513
   63PEN    H24 2256   0.468   2.906   2.509
   63PEN    H25 2257   0.833   3.079   2.478
   63PEN    H26 2258   1.079   3.285   1.808
   63PEN    C27 2259   0.980   3.263   1.631
   63PEN    C28 2260   0.841   3.228   1.429
   63PEN    H29 2261   0.667   2.987   2.607
   63PEN    C30 2262   1.080   3.321   1.545
   63PEN    C31 2263   0.939   3.283   1.353
   63PEN    H32 2264   0.761   3.197   1.388
   63PEN    C33 2265   1.060   3.331   1.412
   63PEN    H34 2266   1.161   3.354   1.583
   63PEN    H35 2267   0.927   3.289   1.259
   63PEN    H36 2268   1.127   3.370   1.357
   64PEN     C1 2269   0.999   3.851   4.663
   64PEN     C2 2270   1.098   3.908   4.580
   64PEN     C3 2271   0.876   3.802   4.603
   64PEN     C4 2272   1.017   3.841   4.802
   64PEN     C5 2273   1.080   3.918   4.443
   64PEN     H6 2274   1.179   3.940   4.619
   64PEN     C7 2275   0.860   3.814   4.464
   64PEN     C8 2276   0.778   3.746   4.686
   64PEN     C9 2277   0.919   3.785   4.885
   64PEN    H10 2278   1.098   3.872   4.839
   64PEN    C11 2279   1.180   3.977   4.356
   64PEN    C12 2280   0.958   3.870   4.383
   64PEN    H13 2281   0.780   3.782   4.424
   64PEN    H14 2282   0.697   3.715   4.649
   64PEN    C15 2283   0.796   3.736   4.825
   64PEN    C16 2284   0.935   3.773   5.024
   64PEN    C17 2285   1.160   3.986   4.223
   64PEN    H18 2286   1.261   4.009   4.394
   64PEN    C19 2287   0.942   3.883   4.241
   64PEN    C20 2288   0.697   3.679   4.908
   64PEN    C21 2289   0.837   3.716   5.105
   64PEN    H22 2290   1.015   3.805   5.065
   64PEN    C23 2291   1.039   3.938   4.164
   64PEN    H24 2292   1.227   4.026   4.168
   64PEN    H25 2293   0.862   3.852   4.199
   64PEN    H26 2294   0.616   3.647   4.869
   64PEN    C27 2295   0.715   3.669   5.046
   64PEN    C28 2296   0.853   3.704   5.248
   64PEN    H29 2297   1.027   3.945   4.070
   64PEN    C30 2298   0.615   3.610   5.132
   64PEN    C31 2299   0.755   3.649   5.324
   64PEN    H32 2300   0.933   3.735   5.289
   64PEN    C33 2301   0.635   3.601   5.265
   64PEN    H34 2302   0.534   3.578   5.094
   64PEN    H35 2303   0.768   3.642   5.418
   64PEN    H36 2304   0.568   3.561   5.320
   65PEN     C1 2305   0.849   2.868   0.446
   65PEN     C2 2306   0.948   2.925   0.363
   65PEN     C3 2307   0.726   2.819   0.386
   65PEN     C4 2308   0.867   2.858   0.585
   65PEN     C5 2309   0.930   2.935   0.226
   65PEN     H6 2310   1.028   2.957   0.402
   65PEN     C7 2311   0.710   2.831   0.247
   65PEN     C8 2312   0.628   2.763   0.469
   65PEN     C9 2313   0.769   2.802   0.668
   65PEN    H10 2314   0.948   2.889   0.622
   65PEN    C11 2315   1.030   2.994   0.139
   65PEN    C12 2316   0.808   2.887   0.166
   65PEN    H13 2317   0.630   2.799   0.207
   65PEN    H14 2318   0.546   2.732   0.432
   65PEN    C15 2319   0.645   2.753   0.608
   65PEN    C16 2320   0.784   2.790   0.807
   65PEN    C17 2321   1.010   3.003   0.006
   65PEN    H18 2322   1.111   3.026   0.177
   65PEN    C19 2323   0.791   2.900   0.024
   65PEN    C20 2324   0.546   2.696   0.691
   65PEN    C21 2325   0.687   2.733   0.888
   65PEN    H22 2326   0.864   2.822   0.847
   65PEN    C23 2327   0.889   2.955  -0.053
   65PEN    H24 2328   1.077   3.042  -0.049
   65PEN    H25 2329   0.711   2.869  -0.018
   65PEN    H26 2330   0.466   2.664   0.652
   65PEN    C27 2331   0.564   2.686   0.829
   65PEN    C28 2332   0.703   2.721   1.031
   65PEN    H29 2333   0.877   2.962  -0.147
   65PEN    C30 2334   0.465   2.627   0.915
   65PEN    C31 2335   0.605   2.666   1.107
   65PEN    H32 2336   0.783   2.751   1.072
   65PEN    C33 2337   0.484   2.617   1.048
   65PEN    H34 2338   0.384   2.595   0.877
   65PEN    H35 2339   0.617   2.659   1.201
   65PEN    H36 2340   0.417   2.578   1.103
   66PEN     C1 2341   0.752   1.660   1.852
   66PEN     C2 2342   0.851   1.717   1.769
   66PEN     C3 2343   0.629   1.611   1.792
   66PEN     C4 2344   0.770   1.650   1.991
   66PEN     C5 2345   0.833   1.727   1.631
   66PEN     H6 2346   0.931   1.749   1.808
   66PEN     C7 2347   0.613   1.623   1.653
   66PEN     C8 2348   0.530   1.555   1.875
   66PEN     C9 2349   0.671   1.594   2.074
   66PEN    H10 2350   0.851   1.681   2.028
   66PEN    C11 2351   0.933   1.786   1.545
   66PEN    C12 2352   0.710   1.679   1.572
   66PEN    H13 2353   0.533   1.591   1.612
   66PEN    H14 2354   0.449   1.523   1.838
   66PEN    C15 2355   0.548   1.545   2.013
   66PEN    C16 2356   0.687   1.582   2.213
   66PEN    C17 2357   0.913   1.795   1.412
   66PEN    H18 2358   1.014   1.818   1.583
   66PEN    C19 2359   0.694   1.692   1.429
   66PEN    C20 2360   0.449   1.488   2.097
   66PEN    C21 2361   0.589   1.525   2.294
   66PEN    H22 2362   0.767   1.614   2.253
   66PEN    C23 2363   0.792   1.747   1.353
   66PEN    H24 2364   0.980   1.834   1.357
   66PEN    H25 2365   0.614   1.661   1.388
   66PEN    H26 2366   0.369   1.456   2.058
   66PEN    C27 2367   0.467   1.478   2.234
   66PEN    C28 2368   0.606   1.513   2.436
   66PEN    H29 2369   0.780   1.754   1.259
   66PEN    C30 2370   0.367   1.419   2.320
   66PEN    C31 2371   0.508   1.458   2.513
   66PEN    H32 2372   0.686   1.543   2.478
   66PEN    C33 2373   0.387   1.409   2.454
   66PEN    H34 2374   0.286   1.387   2.283
   66PEN    H35 2375   0.520   1.451   2.607
   66PEN    H36 2376   0.320   1.370   2.509
   67PEN     C1 2377   1.803   1.545   2.013
   67PEN     C2 2378   1.704   1.488   2.097
   67PEN     C3 2379   1.927   1.594   2.074
   67PEN     C4 2380   1.785   1.555   1.875
   67PEN     C5 2381   1.722   1.478   2.234
   67PEN     H6 2382   1.624   1.456   2.058
   67PEN     C7 2383   1.942   1.582   2.213
   67PEN     C8 2384   2.025   1.650   1.991
   67PEN     C9 2385   1.884   1.611   1.792
   67PEN    H10 2386   1.704   1.523   1.838
   67PEN    C11 2387   1.622   1.419   2.320
   67PEN    C12 2388   1.845   1.525   2.294
   67PEN    H13 2389   2.022   1.614   2.253
   67PEN    H14 2390   2.106   1.681   2.028
   67PEN    C15 2391   2.007   1.660   1.852
   67PEN    C16 2392   1.868   1.623   1.653
   67PEN    C17 2393   1.642   1.409   2.454
   67PEN    H18 2394   1.542   1.387   2.283
   67PEN    C19 2395   1.861   1.513   2.436
   67PEN    C20 2396   2.106   1.717   1.769
   67PEN    C21 2397   1.966   1.679   1.572
   67PEN    H22 2398   1.788   1.591   1.612
   67PEN    C23 2399   1.763   1.458   2.513
   67PEN    H24 2400   1.575   1.370   2.509
   67PEN    H25 2401   1.941   1.543   2.478
   67PEN    H26 2402   2.186   1.749   1.808
   67PEN    C27 2403   2.088   1.727   1.631
   67PEN    C28 2404   1.949   1.692   1.429
   67PEN    H29 2405   1.775   1.451   2.607
   67PEN    C30 2406   2.188   1.786   1.545
   67PEN    C31 2407   2.047   1.747   1.353
   67PEN    H32 2408   1.869   1.661   1.388
   67PEN    C33 2409   2.168   1.795   1.412
   67PEN    H34 2410   2.269   1.818   1.583
   67PEN    H35 2411   2.035   1.754   1.259
   67PEN    H36 2412   2.235   1.834   1.357
   68PEN     C1 2413   2.107   2.315   4.663
   68PEN     C2 2414   2.206   2.372   4.580
   68PEN     C3 2415   1.984   2.266   4.603
   68PEN     C4 2416   2.125   2.305   4.802
   68PEN     C5 2417   2.188   2.382   4.443
   68PEN     H6 2418   2.287   2.404   4.619
   68PEN     C7 2419   1.968   2.278   4.464
   68PEN     C8 2420   1.886   2.211   4.686
   68PEN     C9 2421   2.027   2.249   4.885
   68PEN    H10 2422   2.206   2.337   4.839
   68PEN    C11 2423   2.288   2.441   4.356
   68PEN    C12 2424   2.066   2.335   4.383
   68PEN    H13 2425   1.888   2.246   4.424
   68PEN    H14 2426   1.804   2.179   4.649
   68PEN    C15 2427   1.904   2.200   4.825
   68PEN    C16 2428   2.042   2.237   5.024
   68PEN    C17 2429   2.268   2.451   4.223
   68PEN    H18 2430   2.369   2.473   4.394
   68PEN    C19 2431   2.049   2.347   4.241
   68PEN    C20 2432   1.804   2.143   4.908
   68PEN    C21 2433   1.945   2.181   5.105
   68PEN    H22 2434   2.123   2.269   5.065
   68PEN    C23 2435   2.147   2.402   4.164
   68PEN    H24 2436   2.335   2.490   4.168
   68PEN    H25 2437   1.969   2.317   4.199
   68PEN    H26 2438   1.724   2.111   4.869
   68PEN    C27 2439   1.822   2.133   5.046
   68PEN    C28 2440   1.961   2.168   5.248
   68PEN    H29 2441   2.135   2.409   4.070
   68PEN    C30 2442   1.723   2.075   5.132
   68PEN    C31 2443   1.863   2.113   5.324
   68PEN    H32 2444   2.041   2.199   5.289
   68PEN    C33 2445   1.743   2.065   5.265
   68PEN    H34 2446   1.642   2.042   5.094
   68PEN    H35 2447   1.875   2.107   5.418
   68PEN    H36 2448   1.676   2.026   5.320
   69PEN     C1 2449   1.827   1.985   0.608
   69PEN     C2 2450   1.728   1.928   0.691
   69PEN     C3 2451   1.950   2.034   0.668
   69PEN     C4 2452   1.809   1.995   0.469
   69PEN     C5 2453   1.746   1.918   0.829
   69PEN     H6 2454   1.647   1.896   0.652
   69PEN     C7 2455   1.966   2.022   0.807
   69PEN     C8 2456   2.048   2.090   0.585
   69PEN     C9 2457   1.907   2.051   0.386
   69PEN    H10 2458   1.728   1.964   0.432
   69PEN    C11 2459   1.646   1.859   0.915
   69PEN    C12 2460   1.868   1.965   0.888
   69PEN    H13 2461   2.046   2.054   0.847
   69PEN    H14 2462   2.129   2.121   0.622
   69PEN    C15 2463   2.030   2.100   0.446
   69PEN    C16 2464   1.891   2.063   0.247
   69PEN    C17 2465   1.666   1.850   1.048
   69PEN    H18 2466   1.565   1.827   0.877
   69PEN    C19 2467   1.884   1.953   1.031
   69PEN    C20 2468   2.129   2.157   0.363
   69PEN    C21 2469   1.989   2.120   0.166
   69PEN    H22 2470   1.811   2.031   0.207
   69PEN    C23 2471   1.787   1.898   1.107
   69PEN    H24 2472   1.599   1.810   1.103
   69PEN    H25 2473   1.964   1.984   1.072
   69PEN    H26 2474   2.210   2.189   0.402
   69PEN    C27 2475   2.111   2.167   0.226
   69PEN    C28 2476   1.973   2.132   0.024
   69PEN    H29 2477   1.799   1.891   1.201
   69PEN    C30 2478   2.211   2.226   0.139
   69PEN    C31 2479   2.071   2.187  -0.053
   69PEN    H32 2480   1.893   2.101  -0.018
   69PEN    C33 2481   2.191   2.235   0.006
   69PEN    H34 2482   2.292   2.258   0.177
   69PEN    H35 2483   2.058   2.194  -0.147
   69PEN    H36 2484   2.258   2.275  -0.049
   70PEN     C1 2485   2.080   2.428   1.852
   70PEN     C2 2486   2.179   2.485   1.769
   70PEN     C3 2487   1.957   2.379   1.792
   70PEN     C4 2488   2.098   2.417   1.991
   70PEN     C5 2489   2.162   2.495   1.631
   70PEN     H6 2490   2.260   2.517   1.808
   70PEN     C7 2491   1.942   2.391   1.653
   70PEN     C8 2492   1.859   2.323   1.875
   70PEN     C9 2493   2.000   2.362   2.074
   70PEN    H10 2494   2.180   2.449   2.028
   70PEN    C11 2495   2.261   2.553   1.545
   70PEN    C12 2496   2.039   2.447   1.572
   70PEN    H13 2497   1.861   2.359   1.612
   70PEN    H14 2498   1.778   2.291   1.838
   70PEN    C15 2499   1.877   2.313   2.013
   70PEN    C16 2500   2.016   2.350   2.213
   70PEN    C17 2501   2.241   2.563   1.412
   70PEN    H18 2502   2.342   2.586   1.583
   70PEN    C19 2503   2.023   2.460   1.429
   70PEN    C20 2504   1.778   2.256   2.097
   70PEN    C21 2505   1.918   2.293   2.294
   70PEN    H22 2506   2.096   2.381   2.253
   70PEN    C23 2507   2.121   2.515   1.353
   70PEN    H24 2508   2.308   2.602   1.357
   70PEN    H25 2509   1.943   2.429   1.388
   70PEN    H26 2510   1.697   2.224   2.058
   70PEN    C27 2511   1.796   2.246   2.234
   70PEN    C28 2512   1.935   2.281   2.436
   70PEN    H29 2513   2.109   2.521   1.259
   70PEN    C30 2514   1.696   2.187   2.320
   70PEN    C31 2515   1.837   2.226   2.513
   70PEN    H32 2516   2.015   2.311   2.478
   70PEN    C33 2517   1.716   2.177   2.454
   70PEN    H34 2518   1.615   2.155   2.283
   70PEN    H35 2519   1.849   2.219   2.607
   70PEN    H36 2520   1.649   2.138   2.509
   71PEN     C1 2521   2.254   3.851   4.663
   71PEN     C2 2522   2.353   3.908   4.580
   71PEN     C3 2523   2.131   3.802   4.603
   71PEN     C4 2524   2.272   3.841   4.802
   71PEN     C5 2525   2.335   3.918   4.443
   71PEN     H6 2526   2.434   3.940   4.619
   71PEN     C7 2527   2.115   3.814   4.464
   71PEN     C8 2528   2.033   3.746   4.686
   71PEN     C9 2529   2.174   3.785   4.885
   71PEN    H10 2530   2.353   3.872   4.839
   71PEN    C11 2531   2.435   3.977   4.356
   71PEN    C12 2532   2.213   3.870   4.383
   71PEN    H13 2533   2.035   3.782   4.424
   71PEN    H14 2534   1.952   3.715   4.649
   71PEN    C15 2535   2.051   3.736   4.825
   71PEN    C16 2536   2.190   3.773   5.024
   71PEN    C17 2537   2.415   3.986   4.223
   71PEN    H18 2538   2.516   4.009   4.394
   71PEN    C19 2539   2.197   3.883   4.241
   71PEN    C20 2540   1.952   3.679   4.908
   71PEN    C21 2541   2.092   3.716   5.105
   71PEN    H22 2542   2.270   3.805   5.065
   71PEN    C23 2543   2.295   3.938   4.164
   71PEN    H24 2544   2.482   4.026   4.168
   71PEN    H25 2545   2.117   3.852   4.199
   71PEN    H26 2546   1.871   3.647   4.869
   71PEN    C27 2547   1.970   3.669   5.046
   71PEN    C28 2548   2.108   3.704   5.248
   71PEN    H29 2549   2.282   3.945   4.070
   71PEN    C30 2550   1.870   3.610   5.132
   71PEN    C31 2551   2.011   3.649   5.324
   71PEN    H32 2552   2.188   3.735   5.289
   71PEN    C33 2553   1.890   3.601   5.265
   71PEN    H34 2554   1.789   3.578   5.094
   71PEN    H35 2555   2.023   3.642   5.418
   71PEN    H36 2556   1.823   3.561   5.320
   72PEN     C1 2557   0.949   3.523   3.258
   72PEN     C2 2558   1.048   3.580   3.175
   72PEN     C3 2559   0.826   3.474   3.197
   72PEN     C4 2560   0.967   3.513   3.397
   72PEN     C5 2561   1.030   3.590   3.037
   72PEN     H6 2562   1.129   3.612   3.214
   72PEN     C7 2563   0.810   3.486   3.058
   72PEN     C8 2564   0.728   3.419   3.280
   72PEN     C9 2565   0.869   3.457   3.480
   72PEN    H10 2566   1.048   3.545   3.434
   72PEN    C11 2567   1.130   3.649   2.951
   72PEN    C12 2568   0.908   3.543   2.977
   72PEN    H13 2569   0.730   3.455   3.018
   72PEN    H14 2570   0.646   3.387   3.243
   72PEN    C15 2571   0.746   3.408   3.419
   72PEN    C16 2572   0.884   3.445   3.619
   72PEN    C17 2573   1.110   3.659   2.817
   72PEN    H18 2574   1.211   3.681   2.988
   72PEN    C19 2575   0.891   3.555   2.835
   72PEN    C20 2576   0.647   3.351   3.502
   72PEN    C21 2577   0.787   3.389   3.700
   72PEN    H22 2578   0.965   3.477   3.659
   72PEN    C23 2579   0.989   3.610   2.759
   72PEN    H24 2580   1.177   3.698   2.762
   72PEN    H25 2581   0.811   3.525   2.794
   72PEN    H26 2582   0.566   3.319   3.463
   72PEN    C27 2583   0.664   3.341   3.640
   72PEN    C28 2584   0.803   3.376   3.842
   72PEN    H29 2585   0.977   3.617   2.665
   72PEN    C30 2586   0.565   3.283   3.726
   72PEN    C31 2587   0.705   3.321   3.918
   72PEN    H32 2588   0.883   3.407   3.883
   72PEN    C33 2589   0.585   3.273   3.860
   72PEN    H34 2590   0.484   3.250   3.689
   72PEN    H35 2591   0.717   3.315   4.012
   72PEN    H36 2592   0.518   3.234   3.915
   73PEN     C1 2593   1.730   0.777   2.013
   73PEN     C2 2594   1.631   0.720   2.097
   73PEN     C3 2595   1.853   0.826   2.074
   73PEN     C4 2596   1.712   0.787   1.875
   73PEN     C5 2597   1.648   0.710   2.234
   73PEN     H6 2598   1.550   0.688   2.058
   73PEN     C7 2599   1.869   0.814   2.213
   73PEN     C8 2600   1.951   0.882   1.991
   73PEN     C9 2601   1.810   0.843   1.792
   73PEN    H10 2602   1.631   0.756   1.838
   73PEN    C11 2603   1.549   0.651   2.320
   73PEN    C12 2604   1.771   0.757   2.294
   73PEN    H13 2605   1.949   0.846   2.253
   73PEN    H14 2606   2.032   0.913   2.028
   73PEN    C15 2607   1.933   0.892   1.852
   73PEN    C16 2608   1.794   0.855   1.653
   73PEN    C17 2609   1.569   0.642   2.454
   73PEN    H18 2610   1.468   0.619   2.283
   73PEN    C19 2611   1.787   0.745   2.436
   73PEN    C20 2612   2.032   0.949   1.769
   73PEN    C21 2613   1.892   0.912   1.572
   73PEN    H22 2614   1.714   0.823   1.612
   73PEN    C23 2615   1.689   0.690   2.513
   73PEN    H24 2616   1.502   0.602   2.509
   73PEN    H25 2617   1.867   0.776   2.478
   73PEN    H26 2618   2.113   0.981   1.808
   73PEN    C27 2619   2.014   0.959   1.631
   73PEN    C28 2620   1.876   0.924   1.429
   73PEN    H29 2621   1.702   0.683   2.607
   73PEN    C30 2622   2.114   1.018   1.545
   73PEN    C31 2623   1.973   0.979   1.353
   73PEN    H32 2624   1.796   0.893   1.388
   73PEN    C33 2625   2.094   1.027   1.412
   73PEN    H34 2626   2.195   1.050   1.583
   73PEN    H35 2627   1.961   0.986   1.259
   73PEN    H36 2628   2.161   1.067   1.357
   74PEN     C1 2629   1.780   1.105   3.419
   74PEN     C2 2630   1.681   1.048   3.502
   74PEN     C3 2631   1.903   1.154   3.480
   74PEN     C4 2632   1.762   1.115   3.280
   74PEN     C5 2633   1.699   1.038   3.640
   74PEN     H6 2634   1.600   1.016   3.463
   74PEN     C7 2635   1.919   1.142   3.619
   74PEN     C8 2636   2.001   1.209   3.397
   74PEN     C9 2637   1.860   1.171   3.197
   74PEN    H10 2638   1.681   1.083   3.243
   74PEN    C11 2639   1.599   0.979   3.726
   74PEN    C12 2640   1.821   1.085   3.700
   74PEN    H13 2641   1.999   1.173   3.659
   74PEN    H14 2642   2.082   1.241   3.434
   74PEN    C15 2643   1.983   1.220   3.258
   74PEN    C16 2644   1.844   1.183   3.058
   74PEN    C17 2645   1.619   0.969   3.860
   74PEN    H18 2646   1.518   0.947   3.689
   74PEN    C19 2647   1.837   1.073   3.842
   74PEN    C20 2648   2.082   1.277   3.175
   74PEN    C21 2649   1.942   1.239   2.977
   74PEN    H22 2650   1.764   1.151   3.018
   74PEN    C23 2651   1.740   1.018   3.918
   74PEN    H24 2652   1.552   0.930   3.915
   74PEN    H25 2653   1.917   1.103   3.883
   74PEN    H26 2654   2.163   1.309   3.214
   74PEN    C27 2655   2.065   1.287   3.037
   74PEN    C28 2656   1.926   1.252   2.835
   74PEN    H29 2657   1.752   1.011   4.012
   74PEN    C30 2658   2.164   1.345   2.951
   74PEN    C31 2659   2.024   1.307   2.759
   74PEN    H32 2660   1.846   1.221   2.794
   74PEN    C33 2661   2.144   1.355   2.817
   74PEN    H34 2662   2.245   1.378   2.988
   74PEN    H35 2663   2.011   1.313   2.665
   74PEN    H36 2664   2.211   1.394   2.762
   75PEN     C1 2665   2.033   1.547   4.663
   75PEN     C2 2666   2.133   1.604   4.580
   75PEN     C3 2667   1.910   1.498   4.603
   75PEN     C4 2668   2.051   1.537   4.802
   75PEN     C5 2669   2.115   1.614   4.443
   75PEN     H6 2670   2.213   1.636   4.619
   75PEN     C7 2671   1.895   1.510   4.464
   75PEN     C8 2672   1.812   1.443   4.686
   75PEN     C9 2673   1.953   1.481   4.885
   75PEN    H10 2674   2.133   1.569   4.839
   75PEN    C11 2675   2.214   1.673   4.356
   75PEN    C12 2676   1.992   1.567   4.383
   75PEN    H13 2677   1.814   1.479   4.424
   75PEN    H14 2678   1.731   1.411   4.649
   75PEN    C15 2679   1.830   1.432   4.825
   75PEN    C16 2680   1.969   1.469   5.024
   75PEN    C17 2681   2.194   1.683   4.223
   75PEN    H18 2682   2.295   1.705   4.394
   75PEN    C19 2683   1.976   1.579   4.241
   75PEN    C20 2684   1.731   1.375   4.908
   75PEN    C21 2685   1.871   1.413   5.105
   75PEN    H22 2686   2.049   1.501   5.065
   75PEN    C23 2687   2.074   1.635   4.164
   75PEN    H24 2688   2.261   1.722   4.168
   75PEN    H25 2689   1.896   1.549   4.199
   75PEN    H26 2690   1.650   1.343   4.869
   75PEN    C27 2691   1.749   1.365   5.046
   75PEN    C28 2692   1.888   1.400   5.248
   75PEN    H29 2693   2.062   1.641   4.070
   75PEN    C30 2694   1.649   1.307   5.132
   75PEN    C31 2695   1.790   1.345   5.324
   75PEN    H32 2696   1.968   1.431   5.289
   75PEN    C33 2697   1.669   1.297   5.265
   75PEN    H34 2698   1.568   1.274   5.094
   75PEN    H35 2699   1.802   1.339   5.418
   75PEN    H36 2700   1.602   1.258   5.320
   76PEN     C1 2701   2.057   1.987   3.258
   76PEN     C2 2702   2.156   2.045   3.175
   76PEN     C3 2703   1.934   1.939   3.197
   76PEN     C4 2704   2.075   1.977   3.397
   76PEN     C5 2705   2.138   2.055   3.037
   76PEN     H6 2706   2.237   2.077   3.214
   76PEN     C7 2707   1.918   1.951   3.058
   76PEN     C8 2708   1.836   1.883   3.280
   76PEN     C9 2709   1.977   1.921   3.480
   76PEN    H10 2710   2.156   2.009   3.434
   76PEN    C11 2711   2.238   2.113   2.951
   76PEN    C12 2712   2.016   2.007   2.977
   76PEN    H13 2713   1.838   1.919   3.018
   76PEN    H14 2714   1.754   1.851   3.243
   76PEN    C15 2715   1.854   1.873   3.419
   76PEN    C16 2716   1.992   1.910   3.619
   76PEN    C17 2717   2.218   2.123   2.817
   76PEN    H18 2718   2.319   2.146   2.988
   76PEN    C19 2719   1.999   2.020   2.835
   76PEN    C20 2720   1.754   1.816   3.502
   76PEN    C21 2721   1.895   1.853   3.700
   76PEN    H22 2722   2.072   1.941   3.659
   76PEN    C23 2723   2.097   2.075   2.759
   76PEN    H24 2724   2.285   2.162   2.762
   76PEN    H25 2725   1.919   1.989   2.794
   76PEN    H26 2726   1.674   1.783   3.463
   76PEN    C27 2727   1.772   1.805   3.640
   76PEN    C28 2728   1.911   1.840   3.842
   76PEN    H29 2729   2.085   2.081   2.665
   76PEN    C30 2730   1.673   1.747   3.726
   76PEN    C31 2731   1.813   1.785   3.918
   76PEN    H32 2732   1.991   1.871   3.883
   76PEN    C33 2733   1.692   1.737   3.860
   76PEN    H34 2734   1.592   1.714   3.689
   76PEN    H35 2735   1.825   1.779   4.012
   76PEN    H36 2736   1.626   1.698   3.915
   77PEN     C1 2737   2.181   3.083   4.663
   77PEN     C2 2738   2.280   3.140   4.580
   77PEN     C3 2739   2.057   3.034   4.603
   77PEN     C4 2740   2.198   3.073   4.802
   77PEN     C5 2741   2.262   3.150   4.443
   77PEN     H6 2742   2.360   3.172   4.619
   77PEN     C7 2743   2.042   3.046   4.464
   77PEN     C8 2744   1.959   2.978   4.686
   77PEN     C9 2745   2.100   3.017   4.885
   77PEN    H10 2746   2.280   3.104   4.839
   77PEN    C11 2747   2.361   3.209   4.356
   77PEN    C12 2748   2.139   3.103   4.383
   77PEN    H13 2749   1.962   3.014   4.424
   77PEN    H14 2750   1.878   2.947   4.649
   77PEN    C15 2751   1.977   2.968   4.825
   77PEN    C16 2752   2.116   3.005   5.024
   77PEN    C17 2753   2.342   3.219   4.223
   77PEN    H18 2754   2.442   3.241   4.394
   77PEN    C19 2755   2.123   3.115   4.241
   77PEN    C20 2756   1.878   2.911   4.908
   77PEN    C21 2757   2.018   2.949   5.105
   77PEN    H22 2758   2.196   3.037   5.065
   77PEN    C23 2759   2.221   3.170   4.164
   77PEN    H24 2760   2.409   3.258   4.168
   77PEN    H25 2761   2.043   3.085   4.199
   77PEN    H26 2762   1.798   2.879   4.869
   77PEN    C27 2763   1.896   2.901   5.046
   77PEN    C28 2764   2.035   2.936   5.248
   77PEN    H29 2765   2.209   3.177   4.070
   77PEN    C30 2766   1.796   2.842   5.132
   77PEN    C31 2767   1.937   2.881   5.324
   77PEN    H32 2768   2.115   2.967   5.289
   77PEN    C33 2769   1.816   2.833   5.265
   77PEN    H34 2770   1.715   2.810   5.094
   77PEN    H35 2771   1.949   2.874   5.418
   77PEN    H36 2772   1.749   2.793   5.320
   78PEN     C1 2773   2.130   2.755   3.258
   78PEN     C2 2774   2.230   2.812   3.175
   78PEN     C3 2775   2.007   2.706   3.197
   78PEN     C4 2776   2.148   2.745   3.397
   78PEN     C5 2777   2.212   2.823   3.037
   78PEN     H6 2778   2.310   2.845   3.214
   78PEN     C7 2779   1.992   2.718   3.058
   78PEN     C8 2780   1.909   2.651   3.280
   78PEN     C9 2781   2.050   2.689   3.480
   78PEN    H10 2782   2.230   2.777   3.434
   78PEN    C11 2783   2.311   2.881   2.951
   78PEN    C12 2784   2.089   2.775   2.977
   78PEN    H13 2785   1.912   2.687   3.018
   78PEN    H14 2786   1.828   2.619   3.243
   78PEN    C15 2787   1.927   2.641   3.419
   78PEN    C16 2788   2.066   2.677   3.619
   78PEN    C17 2789   2.292   2.891   2.817
   78PEN    H18 2790   2.392   2.914   2.988
   78PEN    C19 2791   2.073   2.787   2.835
   78PEN    C20 2792   1.828   2.583   3.502
   78PEN    C21 2793   1.968   2.621   3.700
   78PEN    H22 2794   2.146   2.709   3.659
   78PEN    C23 2795   2.171   2.843   2.759
   78PEN    H24 2796   2.358   2.930   2.762
   78PEN    H25 2797   1.993   2.757   2.794
   78PEN    H26 2798   1.747   2.551   3.463
   78PEN    C27 2799   1.846   2.573   3.640
   78PEN    C28 2800   1.985   2.608   3.842
   78PEN    H29 2801   2.159   2.849   2.665
   78PEN    C30 2802   1.746   2.515   3.726
   78PEN    C31 2803   1.887   2.553   3.918
   78PEN    H32 2804   2.065   2.639   3.883
   78PEN    C33 2805   1.766   2.505   3.860
   78PEN    H34 2806   1.665   2.482   3.689
   78PEN    H35 2807   1.899   2.547   4.012
   78PEN    H36 2808   1.699   2.466   3.915
   79PEN     C1 2809   2.154   3.195   1.852
   79PEN     C2 2810   2.253   3.253   1.769
   79PEN     C3 2811   2.031   3.147   1.792
   79PEN     C4 2812   2.172   3.185   1.991
   79PEN     C5 2813   2.235   3.263   1.631
   79PEN     H6 2814   2.334   3.285   1.808
   79PEN     C7 2815   2.015   3.159   1.653
   79PEN     C8 2816   1.933   3.091   1.875
   79PEN     C9 2817   2.074   3.130   2.074
   79PEN    H10 2818   2.253   3.217   2.028
   79PEN    C11 2819   2.335   3.321   1.545
   79PEN    C12 2820   2.113   3.215   1.572
   79PEN    H13 2821   1.935   3.127   1.612
   79PEN    H14 2822   1.851   3.059   1.838
   79PEN    C15 2823   1.951   3.081   2.013
   79PEN    C16 2824   2.089   3.118   2.213
   79PEN    C17 2825   2.315   3.331   1.412
   79PEN    H18 2826   2.416   3.354   1.583
   79PEN    C19 2827   2.096   3.228   1.429
   79PEN    C20 2828   1.851   3.024   2.097
   79PEN    C21 2829   1.992   3.061   2.294
   79PEN    H22 2830   2.170   3.149   2.253
   79PEN    C23 2831   2.194   3.283   1.353
   79PEN    H24 2832   2.382   3.370   1.357
   79PEN    H25 2833   2.016   3.197   1.388
   79PEN    H26 2834   1.771   2.991   2.058
   79PEN    C27 2835   1.869   3.013   2.234
   79PEN    C28 2836   2.008   3.049   2.436
   79PEN    H29 2837   2.182   3.289   1.259
   79PEN    C30 2838   1.770   2.955   2.320
   79PEN    C31 2839   1.910   2.993   2.513
   79PEN    H32 2840   2.088   3.079   2.478
   79PEN    C33 2841   1.790   2.945   2.454
   79PEN    H34 2842   1.689   2.922   2.283
   79PEN    H35 2843   1.922   2.987   2.607
   79PEN    H36 2844   1.723   2.906   2.509
   80PEN     C1 2845   2.001   3.408   3.419
   80PEN     C2 2846   1.902   3.351   3.502
   80PEN     C3 2847   2.124   3.457   3.480
   80PEN     C4 2848   1.983   3.419   3.280
   80PEN     C5 2849   1.919   3.341   3.640
   80PEN     H6 2850   1.821   3.319   3.463
   80PEN     C7 2851   2.139   3.445   3.619
   80PEN     C8 2852   2.222   3.513   3.397
   80PEN     C9 2853   2.081   3.474   3.197
   80PEN    H10 2854   1.901   3.387   3.243
   80PEN    C11 2855   1.820   3.283   3.726
   80PEN    C12 2856   2.042   3.389   3.700
   80PEN    H13 2857   2.220   3.477   3.659
   80PEN    H14 2858   2.303   3.545   3.434
   80PEN    C15 2859   2.204   3.523   3.258
   80PEN    C16 2860   2.065   3.486   3.058
   80PEN    C17 2861   1.840   3.273   3.860
   80PEN    H18 2862   1.739   3.250   3.689
   80PEN    C19 2863   2.058   3.376   3.842
   80PEN    C20 2864   2.303   3.580   3.175
   80PEN    C21 2865   2.163   3.543   2.977
   80PEN    H22 2866   1.985   3.455   3.018
   80PEN    C23 2867   1.960   3.321   3.918
   80PEN    H24 2868   1.773   3.234   3.915
   80PEN    H25 2869   2.138   3.407   3.883
   80PEN    H26 2870   2.384   3.612   3.214
   80PEN    C27 2871   2.285   3.590   3.037
   80PEN    C28 2872   2.147   3.555   2.835
   80PEN    H29 2873   1.972   3.315   4.012
   80PEN    C30 2874   2.385   3.649   2.951
   80PEN    C31 2875   2.244   3.610   2.759
   80PEN    H32 2876   2.067   3.525   2.794
   80PEN    C33 2877   2.365   3.659   2.817
   80PEN    H34 2878   2.466   3.681   2.988
   80PEN    H35 2879   2.232   3.617   2.665
   80PEN    H36 2880   2.432   3.698   2.762
   81PEN     C1 2881   2.161   0.120   0.428
   81PEN     C2 2882   2.259   0.120   0.326
   81PEN     C3 2883   2.036   0.193   0.405
   81PEN     C4 2884   2.178   0.052   0.549
   81PEN     C5 2885   2.240   0.186   0.206
   81PEN     H6 2886   2.341   0.073   0.340
   81PEN     C7 2887   2.019   0.261   0.282
   81PEN     C8 2888   1.939   0.194   0.505
   81PEN     C9 2889   2.080   0.053   0.650
   81PEN    H10 2890   2.259   0.005   0.562
   81PEN    C11 2891   2.338   0.184   0.102
   81PEN    C12 2892   2.117   0.258   0.183
   81PEN    H13 2893   1.939   0.310   0.267
   81PEN    H14 2894   1.857   0.241   0.492
   81PEN    C15 2895   1.956   0.126   0.626
   81PEN    C16 2896   2.097  -0.015   0.772
   81PEN    C17 2897   2.317   0.248  -0.015
   81PEN    H18 2898   2.419   0.137   0.116
   81PEN    C19 2899   2.099   0.324   0.058
   81PEN    C20 2900   1.857   0.126   0.728
   81PEN    C21 2901   2.000  -0.012   0.871
   81PEN    H22 2902   2.177  -0.064   0.787
   81PEN    C23 2903   2.195   0.320  -0.038
   81PEN    H24 2904   2.384   0.246  -0.083
   81PEN    H25 2905   2.019   0.372   0.041
   81PEN    H26 2906   1.776   0.173   0.714
   81PEN    C27 2907   1.877   0.060   0.848
   81PEN    C28 2908   2.017  -0.078   0.996
   81PEN    H29 2909   2.181   0.364  -0.121
   81PEN    C30 2910   1.779   0.062   0.952
   81PEN    C31 2911   1.921  -0.074   1.092
   81PEN    H32 2912   2.097  -0.126   1.013
   81PEN    C33 2913   1.800  -0.003   1.069
   81PEN    H34 2914   1.697   0.109   0.938
   81PEN    H35 2915   1.935  -0.118   1.175
   81PEN    H36 2916   1.733  -0.000   1.137
   82PEN     C1 2917   2.056   0.781   3.438
   82PEN     C2 2918   1.958   0.781   3.540
   82PEN     C3 2919   2.180   0.708   3.461
   82PEN     C4 2920   2.039   0.849   3.316
   82PEN     C5 2921   1.977   0.716   3.660
   82PEN     H6 2922   1.876   0.828   3.525
   82PEN     C7 2923   2.198   0.640   3.583
   82PEN     C8 2924   2.278   0.708   3.361
   82PEN     C9 2925   2.137   0.848   3.216
   82PEN    H10 2926   1.958   0.896   3.303
   82PEN    C11 2927   1.879   0.717   3.763
   82PEN    C12 2928   2.100   0.643   3.682
   82PEN    H13 2929   2.278   0.592   3.599
   82PEN    H14 2930   2.359   0.660   3.374
   82PEN    C15 2931   2.261   0.776   3.239
   82PEN    C16 2932   2.120   0.916   3.094
   82PEN    C17 2933   1.900   0.653   3.881
   82PEN    H18 2934   1.797   0.764   3.750
   82PEN    C19 2935   2.117   0.577   3.808
   82PEN    C20 2936   2.359   0.775   3.137
   82PEN    C21 2937   2.217   0.913   2.995
   82PEN    H22 2938   2.039   0.965   3.078
   82PEN    C23 2939   2.022   0.581   3.904
   82PEN    H24 2940   1.833   0.655   3.948
   82PEN    H25 2941   2.198   0.529   3.824
   82PEN    H26 2942   2.441   0.728   3.152
   82PEN    C27 2943   2.340   0.841   3.017
   82PEN    C28 2944   2.200   0.979   2.869
   82PEN    H29 2945   2.036   0.537   3.986
   82PEN    C30 2946   2.438   0.839   2.914
   82PEN    C31 2947   2.295   0.975   2.773
   82PEN    H32 2948   2.119   1.028   2.853
   82PEN    C33 2949   2.417   0.904   2.796
   82PEN    H34 2950   2.520   0.792   2.927
   82PEN    H35 2951   2.282   1.020   2.691
   82PEN    H36 2952   2.484   0.901   2.729
   83PEN     C1 2953   2.006   0.453   2.032
   83PEN     C2 2954   1.907   0.454   2.134
   83PEN     C3 2955   2.130   0.380   2.055
   83PEN     C4 2956   1.989   0.521   1.911
   83PEN     C5 2957   1.927   0.388   2.254
   83PEN     H6 2958   1.826   0.501   2.119
   83PEN     C7 2959   2.147   0.313   2.178
   83PEN     C8 2960   2.228   0.380   1.955
   83PEN     C9 2961   2.086   0.521   1.810
   83PEN    H10 2962   1.908   0.569   1.898
   83PEN    C11 2963   1.829   0.390   2.358
   83PEN    C12 2964   2.050   0.315   2.277
   83PEN    H13 2965   2.228   0.264   2.193
   83PEN    H14 2966   2.309   0.333   1.968
   83PEN    C15 2967   2.211   0.448   1.834
   83PEN    C16 2968   2.069   0.588   1.688
   83PEN    C17 2969   1.850   0.325   2.475
   83PEN    H18 2970   1.747   0.436   2.344
   83PEN    C19 2971   2.067   0.249   2.402
   83PEN    C20 2972   2.309   0.447   1.732
   83PEN    C21 2973   2.167   0.586   1.589
   83PEN    H22 2974   1.989   0.637   1.673
   83PEN    C23 2975   1.972   0.254   2.498
   83PEN    H24 2976   1.783   0.327   2.543
   83PEN    H25 2977   2.148   0.201   2.419
   83PEN    H26 2978   2.391   0.401   1.746
   83PEN    C27 2979   2.290   0.513   1.612
   83PEN    C28 2980   2.149   0.652   1.464
   83PEN    H29 2981   1.985   0.209   2.581
   83PEN    C30 2982   2.388   0.512   1.508
   83PEN    C31 2983   2.245   0.647   1.368
   83PEN    H32 2984   2.069   0.700   1.447
   83PEN    C33 2985   2.367   0.576   1.391
   83PEN    H34 2986   2.470   0.465   1.522
   83PEN    H35 2987   2.231   0.692   1.285
   83PEN    H36 2988   2.434   0.574   1.323
   84PEN     C1 2989   2.103   1.661   0.626
   84PEN     C2 2990   2.005   1.662   0.728
   84PEN     C3 2991   2.227   1.588   0.650
   84PEN     C4 2992   2.086   1.729   0.505
   84PEN     C5 2993   2.024   1.596   0.848
   84PEN     H6 2994   1.923   1.709   0.714
   84PEN     C7 2995   2.244   1.521   0.772
   84PEN     C8 2996   2.325   1.588   0.549
   84PEN     C9 2997   2.184   1.729   0.405
   84PEN    H10 2998   2.005   1.777   0.492
   84PEN    C11 2999   1.926   1.598   0.952
   84PEN    C12 3000   2.147   1.523   0.871
   84PEN    H13 3001   2.325   1.472   0.787
   84PEN    H14 3002   2.406   1.541   0.562
   84PEN    C15 3003   2.308   1.656   0.428
   84PEN    C16 3004   2.167   1.796   0.282
   84PEN    C17 3005   1.947   1.533   1.069
   84PEN    H18 3006   1.844   1.644   0.938
   84PEN    C19 3007   2.164   1.457   0.996
   84PEN    C20 3008   2.406   1.655   0.326
   84PEN    C21 3009   2.264   1.794   0.183
   84PEN    H22 3010   2.086   1.845   0.267
   84PEN    C23 3011   2.069   1.462   1.092
   84PEN    H24 3012   1.880   1.536   1.137
   84PEN    H25 3013   2.245   1.409   1.013
   84PEN    H26 3014   2.488   1.609   0.340
   84PEN    C27 3015   2.387   1.721   0.206
   84PEN    C28 3016   2.247   1.860   0.058
   84PEN    H29 3017   2.082   1.417   1.175
   84PEN    C30 3018   2.485   1.720   0.102
   84PEN    C31 3019   2.342   1.855  -0.038
   84PEN    H32 3020   2.166   1.908   0.041
   84PEN    C33 3021   2.464   1.784  -0.015
   84PEN    H34 3022   2.567   1.673   0.116
   84PEN    H35 3023   2.329   1.900  -0.121
   84PEN    H36 3024   2.531   1.782  -0.083
   85PEN     C1 3025   2.106   1.109   4.843
   85PEN     C2 3026   2.008   1.109   4.945
   85PEN     C3 3027   2.231   1.036   4.867
   85PEN     C4 3028   2.089   1.177   4.722
   85PEN     C5 3029   2.027   1.043   5.065
   85PEN     H6 3030   1.926   1.156   4.931
   85PEN     C7 3031   2.248   0.968   4.989
   85PEN     C8 3032   2.328   1.035   4.766
   85PEN     C9 3033   2.187   1.176   4.622
   85PEN    H10 3034   2.008   1.224   4.709
   85PEN    C11 3035   1.929   1.045   5.169
   85PEN    C12 3036   2.150   0.971   5.088
   85PEN    H13 3037   2.328   0.919   5.004
   85PEN    H14 3038   2.410   0.988   4.779
   85PEN    C15 3039   2.311   1.103   4.645
   85PEN    C16 3040   2.170   1.244   4.499
   85PEN    C17 3041   1.950   0.981   5.286
   85PEN    H18 3042   1.847   1.092   5.155
   85PEN    C19 3043   2.168   0.905   5.213
   85PEN    C20 3044   2.410   1.103   4.543
   85PEN    C21 3045   2.267   1.241   4.400
   85PEN    H22 3046   2.090   1.293   4.484
   85PEN    C23 3047   2.072   0.909   5.309
   85PEN    H24 3048   1.883   0.983   5.354
   85PEN    H25 3049   2.248   0.857   5.230
   85PEN    H26 3050   2.491   1.056   4.558
   85PEN    C27 3051   2.390   1.169   4.423
   85PEN    C28 3052   2.250   1.307   4.275
   85PEN    H29 3053   2.086   0.865   5.392
   85PEN    C30 3054   2.488   1.167   4.319
   85PEN    C31 3055   2.346   1.303   4.179
   85PEN    H32 3056   2.169   1.355   4.258
   85PEN    C33 3057   2.467   1.231   4.202
   85PEN    H34 3058   2.570   1.120   4.333
   85PEN    H35 3059   2.332   1.347   4.096
   85PEN    H36 3060   2.534   1.229   4.134
   86PEN     C1 3061   2.130   1.549   3.438
   86PEN     C2 3062   2.031   1.549   3.540
   86PEN     C3 3063   2.254   1.476   3.461
   86PEN     C4 3064   2.113   1.617   3.316
   86PEN     C5 3065   2.051   1.483   3.660
   86PEN     H6 3066   1.950   1.596   3.525
   86PEN     C7 3067   2.271   1.408   3.583
   86PEN     C8 3068   2.352   1.475   3.361
   86PEN     C9 3069   2.210   1.616   3.216
   86PEN    H10 3070   2.031   1.664   3.303
   86PEN    C11 3071   1.952   1.485   3.763
   86PEN    C12 3072   2.174   1.411   3.682
   86PEN    H13 3073   2.351   1.359   3.599
   86PEN    H14 3074   2.433   1.428   3.374
   86PEN    C15 3075   2.335   1.543   3.239
   86PEN    C16 3076   2.193   1.684   3.094
   86PEN    C17 3077   1.973   1.421   3.881
   86PEN    H18 3078   1.871   1.532   3.750
   86PEN    C19 3079   2.191   1.345   3.808
   86PEN    C20 3080   2.433   1.543   3.137
   86PEN    C21 3081   2.290   1.681   2.995
   86PEN    H22 3082   2.113   1.733   3.078
   86PEN    C23 3083   2.095   1.349   3.904
   86PEN    H24 3084   1.907   1.423   3.948
   86PEN    H25 3085   2.271   1.297   3.824
   86PEN    H26 3086   2.514   1.496   3.152
   86PEN    C27 3087   2.413   1.609   3.017
   86PEN    C28 3088   2.273   1.747   2.869
   86PEN    H29 3089   2.109   1.305   3.986
   86PEN    C30 3090   2.512   1.607   2.914
   86PEN    C31 3091   2.369   1.743   2.773
   86PEN    H32 3092   2.193   1.795   2.853
   86PEN    C33 3093   2.491   1.672   2.796
   86PEN    H34 3094   2.593   1.560   2.927
   86PEN    H35 3095   2.355   1.787   2.691
   86PEN    H36 3096   2.557   1.669   2.729
   87PEN     C1 3097   2.284   1.216   1.834
   87PEN     C2 3098   2.383   1.215   1.732
   87PEN     C3 3099   2.160   1.289   1.810
   87PEN     C4 3100   2.302   1.148   1.955
   87PEN     C5 3101   2.363   1.281   1.612
   87PEN     H6 3102   2.464   1.168   1.746
   87PEN     C7 3103   2.143   1.356   1.688
   87PEN     C8 3104   2.062   1.289   1.911
   87PEN     C9 3105   2.204   1.148   2.055
   87PEN    H10 3106   2.383   1.100   1.968
   87PEN    C11 3107   2.462   1.279   1.508
   87PEN    C12 3108   2.240   1.354   1.589
   87PEN    H13 3109   2.063   1.405   1.673
   87PEN    H14 3110   1.981   1.336   1.898
   87PEN    C15 3111   2.080   1.221   2.032
   87PEN    C16 3112   2.221   1.081   2.178
   87PEN    C17 3113   2.441   1.344   1.391
   87PEN    H18 3114   2.543   1.233   1.522
   87PEN    C19 3115   2.223   1.420   1.464
   87PEN    C20 3116   1.981   1.222   2.134
   87PEN    C21 3117   2.124   1.083   2.277
   87PEN    H22 3118   2.301   1.032   2.193
   87PEN    C23 3119   2.319   1.415   1.368
   87PEN    H24 3120   2.507   1.341   1.323
   87PEN    H25 3121   2.143   1.468   1.447
   87PEN    H26 3122   1.900   1.268   2.119
   87PEN    C27 3123   2.001   1.156   2.254
   87PEN    C28 3124   2.141   1.017   2.402
   87PEN    H29 3125   2.305   1.460   1.285
   87PEN    C30 3126   1.902   1.157   2.358
   87PEN    C31 3127   2.045   1.022   2.498
   87PEN    H32 3128   2.221   0.969   2.419
   87PEN    C33 3129   1.923   1.093   2.475
   87PEN    H34 3130   1.821   1.204   2.344
   87PEN    H35 3131   2.059   0.977   2.581
   87PEN    H36 3132   1.857   1.095   2.543
   88PEN     C1 3133   2.029   0.893   0.626
   88PEN     C2 3134   1.931   0.894   0.728
   88PEN     C3 3135   2.154   0.821   0.650
   88PEN     C4 3136   2.012   0.961   0.505
   88PEN     C5 3137   1.951   0.828   0.848
   88PEN     H6 3138   1.850   0.941   0.714
   88PEN     C7 3139   2.171   0.753   0.772
   88PEN     C8 3140   2.251   0.820   0.549
   88PEN     C9 3141   2.110   0.961   0.405
   88PEN    H10 3142   1.931   1.009   0.492
   88PEN    C11 3143   1.852   0.830   0.952
   88PEN    C12 3144   2.074   0.756   0.871
   88PEN    H13 3145   2.251   0.704   0.787
   88PEN    H14 3146   2.333   0.773   0.562
   88PEN    C15 3147   2.234   0.888   0.428
   88PEN    C16 3148   2.093   1.029   0.282
   88PEN    C17 3149   1.873   0.765   1.069
   88PEN    H18 3150   1.771   0.877   0.938
   88PEN    C19 3151   2.091   0.690   0.996
   88PEN    C20 3152   2.333   0.888   0.326
   88PEN    C21 3153   2.190   1.026   0.183
   88PEN    H22 3154   2.013   1.077   0.267
   88PEN    C23 3155   1.995   0.694   1.092
   88PEN    H24 3156   1.807   0.768   1.137
   88PEN    H25 3157   2.171   0.641   1.013
   88PEN    H26 3158   2.414   0.841   0.340
   88PEN    C27 3159   2.313   0.953   0.206
   88PEN    C28 3160   2.173   1.092   0.058
   88PEN    H29 3161   2.009   0.649   1.175
   88PEN    C30 3162   2.412   0.952   0.102
   88PEN    C31 3163   2.269   1.088  -0.038
   88PEN    H32 3164   2.093   1.140   0.041
   88PEN    C33 3165   2.391   1.016  -0.015
   88PEN    H34 3166   2.493   0.905   0.116
   88PEN    H35 3167   2.255   1.132  -0.121
   88PEN    H36 3168   2.457   1.014  -0.083
   89PEN     C1 3169   2.180   1.877   4.843
   89PEN     C2 3170   2.081   1.877   4.945
   89PEN     C3 3171   2.304   1.804   4.867
   89PEN     C4 3172   2.163   1.945   4.722
   89PEN     C5 3173   2.101   1.811   5.065
   89PEN     H6 3174   2.000   1.924   4.931
   89PEN     C7 3175   2.321   1.736   4.989
   89PEN     C8 3176   2.402   1.803   4.766
   89PEN     C9 3177   2.260   1.944   4.622
   89PEN    H10 3178   2.081   1.992   4.709
   89PEN    C11 3179   2.003   1.813   5.169
   89PEN    C12 3180   2.224   1.739   5.088
   89PEN    H13 3181   2.401   1.687   5.004
   89PEN    H14 3182   2.483   1.756   4.779
   89PEN    C15 3183   2.385   1.871   4.645
   89PEN    C16 3184   2.243   2.012   4.499
   89PEN    C17 3185   2.024   1.748   5.286
   89PEN    H18 3186   1.921   1.860   5.155
   89PEN    C19 3187   2.241   1.673   5.213
   89PEN    C20 3188   2.483   1.871   4.543
   89PEN    C21 3189   2.341   2.009   4.400
   89PEN    H22 3190   2.163   2.060   4.484
   89PEN    C23 3191   2.145   1.677   5.309
   89PEN    H24 3192   1.957   1.751   5.354
   89PEN    H25 3193   2.321   1.625   5.230
   89PEN    H26 3194   2.565   1.824   4.558
   89PEN    C27 3195   2.464   1.937   4.423
   89PEN    C28 3196   2.323   2.075   4.275
   89PEN    H29 3197   2.159   1.632   5.392
   89PEN    C30 3198   2.562   1.935   4.319
   89PEN    C31 3199   2.419   2.071   4.179
   89PEN    H32 3200   2.243   2.123   4.258
   89PEN    C33 3201   2.541   1.999   4.202
   89PEN    H34 3202   2.643   1.888   4.333
   89PEN    H35 3203   2.405   2.115   4.096
   89PEN    H36 3204   2.608   1.997   4.134
   90PEN     C1 3205   2.358   1.984   1.834
   90PEN     C2 3206   2.457   1.983   1.732
   90PEN     C3 3207   2.234   2.056   1.810
   90PEN     C4 3208   2.375   1.916   1.955
   90PEN     C5 3209   2.437   2.049   1.612
   90PEN     H6 3210   2.538   1.936   1.746
   90PEN     C7 3211   2.217   2.124   1.688
   90PEN     C8 3212   2.136   2.057   1.911
   90PEN     C9 3213   2.278   1.916   2.055
   90PEN    H10 3214   2.457   1.868   1.968
   90PEN    C11 3215   2.535   2.047   1.508
   90PEN    C12 3216   2.314   2.121   1.589
   90PEN    H13 3217   2.137   2.173   1.673
   90PEN    H14 3218   2.055   2.104   1.898
   90PEN    C15 3219   2.153   1.989   2.032
   90PEN    C16 3220   2.295   1.848   2.178
   90PEN    C17 3221   2.514   2.112   1.391
   90PEN    H18 3222   2.617   2.000   1.522
   90PEN    C19 3223   2.297   2.187   1.464
   90PEN    C20 3224   2.055   1.989   2.134
   90PEN    C21 3225   2.197   1.851   2.277
   90PEN    H22 3226   2.375   1.800   2.193
   90PEN    C23 3227   2.392   2.183   1.368
   90PEN    H24 3228   2.581   2.109   1.323
   90PEN    H25 3229   2.216   2.236   1.447
   90PEN    H26 3230   1.973   2.036   2.119
   90PEN    C27 3231   2.074   1.924   2.254
   90PEN    C28 3232   2.215   1.785   2.402
   90PEN    H29 3233   2.379   2.228   1.285
   90PEN    C30 3234   1.976   1.925   2.358
   90PEN    C31 3235   2.119   1.789   2.498
   90PEN    H32 3236   2.295   1.737   2.419
   90PEN    C33 3237   1.997   1.861   2.475
   90PEN    H34 3238   1.894   1.972   2.344
   90PEN    H35 3239   2.133   1.745   2.581
   90PEN    H36 3240   1.930   1.863   2.543
   91PEN     C1 3241   2.203   2.317   3.438
   91PEN     C2 3242   2.105   2.317   3.540
   91PEN     C3 3243   2.328   2.244   3.461
   91PEN     C4 3244   2.186   2.385   3.316
   91PEN     C5 3245   2.124   2.251   3.660
   91PEN     H6 3246   2.023   2.364   3.525
   91PEN     C7 3247   2.345   2.176   3.583
   91PEN     C8 3248   2.425   2.243   3.361
   91PEN     C9 3249   2.284   2.384   3.216
   91PEN    H10 3250   2.105   2.432   3.303
   91PEN    C11 3251   2.026   2.253   3.763
   91PEN    C12 3252   2.247   2.179   3.682
   91PEN    H13 3253   2.425   2.127   3.599
   91PEN    H14 3254   2.507   2.196   3.374
   91PEN    C15 3255   2.408   2.311   3.239
   91PEN    C16 3256   2.267   2.452   3.094
   91PEN    C17 3257   2.047   2.189   3.881
   91PEN    H18 3258   1.945   2.300   3.750
   91PEN    C19 3259   2.265   2.113   3.808
   91PEN    C20 3260   2.507   2.311   3.137
   91PEN    C21 3261   2.364   2.449   2.995
   91PEN    H22 3262   2.187   2.501   3.078
   91PEN    C23 3263   2.169   2.117   3.904
   91PEN    H24 3264   1.980   2.191   3.948
   91PEN    H25 3265   2.345   2.065   3.824
   91PEN    H26 3266   2.588   2.264   3.152
   91PEN    C27 3267   2.487   2.377   3.017
   91PEN    C28 3268   2.347   2.515   2.869
   91PEN    H29 3269   2.183   2.073   3.986
   91PEN    C30 3270   2.586   2.375   2.914
   91PEN    C31 3271   2.443   2.511   2.773
   91PEN    H32 3272   2.267   2.563   2.853
   91PEN    C33 3273   2.564   2.439   2.796
   91PEN    H34 3274   2.667   2.328   2.927
   91PEN    H35 3275   2.429   2.555   2.691
   91PEN    H36 3276   2.631   2.437   2.729
   92PEN     C1 3277   2.253   2.644   4.843
   92PEN     C2 3278   2.155   2.645   4.945
   92PEN     C3 3279   2.378   2.571   4.867
   92PEN     C4 3280   2.236   2.712   4.722
   92PEN     C5 3281   2.175   2.579   5.065
   92PEN     H6 3282   2.074   2.692   4.931
   92PEN     C7 3283   2.395   2.504   4.989
   92PEN     C8 3284   2.475   2.571   4.766
   92PEN     C9 3285   2.334   2.712   4.622
   92PEN    H10 3286   2.155   2.760   4.709
   92PEN    C11 3287   2.076   2.581   5.169
   92PEN    C12 3288   2.298   2.506   5.088
   92PEN    H13 3289   2.475   2.455   5.004
   92PEN    H14 3290   2.557   2.524   4.779
   92PEN    C15 3291   2.458   2.639   4.645
   92PEN    C16 3292   2.317   2.780   4.499
   92PEN    C17 3293   2.097   2.516   5.286
   92PEN    H18 3294   1.995   2.627   5.155
   92PEN    C19 3295   2.315   2.441   5.213
   92PEN    C20 3296   2.557   2.638   4.543
   92PEN    C21 3297   2.414   2.777   4.400
   92PEN    H22 3298   2.237   2.828   4.484
   92PEN    C23 3299   2.219   2.445   5.309
   92PEN    H24 3300   2.031   2.519   5.354
   92PEN    H25 3301   2.395   2.392   5.230
   92PEN    H26 3302   2.638   2.592   4.558
   92PEN    C27 3303   2.537   2.704   4.423
   92PEN    C28 3304   2.397   2.843   4.275
   92PEN    H29 3305   2.233   2.400   5.392
   92PEN    C30 3306   2.636   2.703   4.319
   92PEN    C31 3307   2.493   2.838   4.179
   92PEN    H32 3308   2.317   2.891   4.258
   92PEN    C33 3309   2.615   2.767   4.202
   92PEN    H34 3310   2.717   2.656   4.333
   92PEN    H35 3311   2.479   2.883   4.096
   92PEN    H36 3312   2.681   2.765   4.134
   93PEN     C1 3313   2.327   3.412   4.843
   93PEN     C2 3314   2.229   3.413   4.945
   93PEN     C3 3315   2.451   3.339   4.867
   93PEN     C4 3316   2.310   3.480   4.722
   93PEN     C5 3317   2.248   3.347   5.065
   93PEN     H6 3318   2.147   3.459   4.931
   93PEN     C7 3319   2.468   3.272   4.989
   93PEN     C8 3320   2.549   3.339   4.766
   93PEN     C9 3321   2.408   3.480   4.622
   93PEN    H10 3322   2.229   3.527   4.709
   93PEN    C11 3323   2.150   3.348   5.169
   93PEN    C12 3324   2.371   3.274   5.088
   93PEN    H13 3325   2.549   3.223   5.004
   93PEN    H14 3326   2.630   3.292   4.779
   93PEN    C15 3327   2.532   3.407   4.645
   93PEN    C16 3328   2.390   3.547   4.499
   93PEN    C17 3329   2.171   3.284   5.286
   93PEN    H18 3330   2.068   3.395   5.155
   93PEN    C19 3331   2.388   3.208   5.213
   93PEN    C20 3332   2.630   3.406   4.543
   93PEN    C21 3333   2.488   3.545   4.400
   93PEN    H22 3334   2.310   3.596   4.484
   93PEN    C23 3335   2.293   3.213   5.309
   93PEN    H24 3336   2.104   3.286   5.354
   93PEN    H25 3337   2.469   3.160   5.230
   93PEN    H26 3338   2.712   3.360   4.558
   93PEN    C27 3339   2.611   3.472   4.423
   93PEN    C28 3340   2.471   3.611   4.275
   93PEN    H29 3341   2.306   3.168   5.392
   93PEN    C30 3342   2.709   3.471   4.319
   93PEN    C31 3343   2.566   3.606   4.179
   93PEN    H32 3344   2.390   3.659   4.258
   93PEN    C33 3345   2.688   3.535   4.202
   93PEN    H34 3346   2.791   3.424   4.333
   93PEN    H35 3347   2.552   3.651   4.096
   93PEN    H36 3348   2.755   3.533   4.134
   94PEN     C1 3349   2.227   2.757   2.032
   94PEN     C2 3350   2.128   2.757   2.134
   94PEN     C3 3351   2.351   2.684   2.055
   94PEN     C4 3352   2.210   2.825   1.911
   94PEN     C5 3353   2.148   2.691   2.254
   94PEN     H6 3354   2.047   2.804   2.119
   94PEN     C7 3355   2.368   2.616   2.178
   94PEN     C8 3356   2.449   2.683   1.955
   94PEN     C9 3357   2.307   2.824   1.810
   94PEN    H10 3358   2.128   2.872   1.898
   94PEN    C11 3359   2.049   2.693   2.358
   94PEN    C12 3360   2.271   2.619   2.277
   94PEN    H13 3361   2.448   2.568   2.193
   94PEN    H14 3362   2.530   2.636   1.968
   94PEN    C15 3363   2.432   2.751   1.834
   94PEN    C16 3364   2.290   2.892   1.688
   94PEN    C17 3365   2.071   2.629   2.475
   94PEN    H18 3366   1.968   2.740   2.344
   94PEN    C19 3367   2.288   2.553   2.402
   94PEN    C20 3368   2.530   2.751   1.732
   94PEN    C21 3369   2.388   2.889   1.589
   94PEN    H22 3370   2.210   2.941   1.673
   94PEN    C23 3371   2.192   2.557   2.498
   94PEN    H24 3372   2.004   2.631   2.543
   94PEN    H25 3373   2.368   2.505   2.419
   94PEN    H26 3374   2.612   2.704   1.746
   94PEN    C27 3375   2.511   2.817   1.612
   94PEN    C28 3376   2.370   2.955   1.464
   94PEN    H29 3377   2.206   2.513   2.581
   94PEN    C30 3378   2.609   2.815   1.508
   94PEN    C31 3379   2.466   2.951   1.368
   94PEN    H32 3380   2.290   3.003   1.447
   94PEN    C33 3381   2.588   2.880   1.391
   94PEN    H34 3382   2.690   2.768   1.522
   94PEN    H35 3383   2.452   2.995   1.285
   94PEN    H36 3384   2.655   2.877   1.323
   95PEN     C1 3385   2.177   2.429   0.626
   95PEN     C2 3386   2.078   2.430   0.728
   95PEN     C3 3387   2.301   2.356   0.650
   95PEN     C4 3388   2.160   2.497   0.505
   95PEN     C5 3389   2.098   2.364   0.848
   95PEN     H6 3390   1.997   2.476   0.714
   95PEN     C7 3391   2.318   2.289   0.772
   95PEN     C8 3392   2.399   2.356   0.549
   95PEN     C9 3393   2.257   2.497   0.405
   95PEN    H10 3394   2.078   2.544   0.492
   95PEN    C11 3395   1.999   2.365   0.952
   95PEN    C12 3396   2.221   2.291   0.871
   95PEN    H13 3397   2.398   2.240   0.787
   95PEN    H14 3398   2.480   2.308   0.562
   95PEN    C15 3399   2.382   2.424   0.428
   95PEN    C16 3400   2.240   2.564   0.282
   95PEN    C17 3401   2.020   2.301   1.069
   95PEN    H18 3402   1.918   2.412   0.938
   95PEN    C19 3403   2.238   2.225   0.996
   95PEN    C20 3404   2.480   2.423   0.326
   95PEN    C21 3405   2.337   2.562   0.183
   95PEN    H22 3406   2.160   2.613   0.267
   95PEN    C23 3407   2.142   2.230   1.092
   95PEN    H24 3408   1.954   2.303   1.137
   95PEN    H25 3409   2.318   2.177   1.013
   95PEN    H26 3410   2.561   2.376   0.340
   95PEN    C27 3411   2.460   2.489   0.206
   95PEN    C28 3412   2.320   2.628   0.058
   95PEN    H29 3413   2.156   2.185   1.175
   95PEN    C30 3414   2.559   2.488   0.102
   95PEN    C31 3415   2.416   2.623  -0.038
   95PEN    H32 3416   2.240   2.676   0.041
   95PEN    C33 3417   2.538   2.552  -0.015
   95PEN    H34 3418   2.640   2.441   0.116
   95PEN    H35 3419   2.402   2.668  -0.121
   95PEN    H36 3420   2.604   2.550  -0.083
   96PEN     C1 3421   2.482   3.079   3.239
   96PEN     C2 3422   2.580   3.079   3.137
   96PEN     C3 3423   2.357   3.152   3.216
   96PEN     C4 3424   2.499   3.011   3.361
   96PEN     C5 3425   2.561   3.145   3.017
   96PEN     H6 3426   2.662   3.032   3.152
   96PEN     C7 3427   2.340   3.220   3.094
   96PEN     C8 3428   2.260   3.153   3.316
   96PEN     C9 3429   2.401   3.012   3.461
   96PEN    H10 3430   2.580   2.964   3.374
   96PEN    C11 3431   2.659   3.143   2.914
   96PEN    C12 3432   2.438   3.217   2.995
   96PEN    H13 3433   2.260   3.268   3.078
   96PEN    H14 3434   2.178   3.200   3.303
   96PEN    C15 3435   2.277   3.085   3.438
   96PEN    C16 3436   2.418   2.944   3.583
   96PEN    C17 3437   2.638   3.207   2.796
   96PEN    H18 3438   2.741   3.096   2.927
   96PEN    C19 3439   2.420   3.283   2.869
   96PEN    C20 3440   2.178   3.085   3.540
   96PEN    C21 3441   2.321   2.947   3.682
   96PEN    H22 3442   2.498   2.895   3.599
   96PEN    C23 3443   2.516   3.279   2.773
   96PEN    H24 3444   2.705   3.205   2.729
   96PEN    H25 3445   2.340   3.331   2.853
   96PEN    H26 3446   2.097   3.132   3.525
   96PEN    C27 3447   2.198   3.019   3.660
   96PEN    C28 3448   2.338   2.881   3.808
   96PEN    H29 3449   2.502   3.323   2.691
   96PEN    C30 3450   2.100   3.021   3.763
   96PEN    C31 3451   2.243   2.885   3.904
   96PEN    H32 3452   2.419   2.833   3.824
   96PEN    C33 3453   2.121   2.956   3.881
   96PEN    H34 3454   2.018   3.068   3.750
   96PEN    H35 3455   2.256   2.840   3.986
   96PEN    H36 3456   2.054   2.959   3.948
   97PEN     C1 3457   2.458   1.432   4.825
   97PEN     C2 3458   2.358   1.375   4.908
   97PEN     C3 3459   2.581   1.481   4.885
   97PEN     C4 3460   2.440   1.443   4.686
   97PEN     C5 3461   2.376   1.365   5.046
   97PEN     H6 3462   2.278   1.343   4.869
   97PEN     C7 3463   2.596   1.469   5.024
   97PEN     C8 3464   2.679   1.537   4.802
   97PEN     C9 3465   2.538   1.498   4.603
   97PEN    H10 3466   2.358   1.411   4.649
   97PEN    C11 3467   2.277   1.307   5.132
   97PEN    C12 3468   2.499   1.413   5.105
   97PEN    H13 3469   2.676   1.501   5.065
   97PEN    H14 3470   2.760   1.569   4.839
   97PEN    C15 3471   2.661   1.547   4.663
   97PEN    C16 3472   2.522   1.510   4.464
   97PEN    C17 3473   2.296   1.297   5.265
   97PEN    H18 3474   2.196   1.274   5.094
   97PEN    C19 3475   2.515   1.400   5.248
   97PEN    C20 3476   2.760   1.604   4.580
   97PEN    C21 3477   2.620   1.567   4.383
   97PEN    H22 3478   2.442   1.479   4.424
   97PEN    C23 3479   2.417   1.345   5.324
   97PEN    H24 3480   2.230   1.258   5.320
   97PEN    H25 3481   2.595   1.431   5.289
   97PEN    H26 3482   2.841   1.636   4.619
   97PEN    C27 3483   2.742   1.614   4.443
   97PEN    C28 3484   2.603   1.579   4.241
   97PEN    H29 3485   2.429   1.339   5.418
   97PEN    C30 3486   2.842   1.673   4.356
   97PEN    C31 3487   2.701   1.635   4.164
   97PEN    H32 3488   2.523   1.549   4.199
   97PEN    C33 3489   2.822   1.683   4.223
   97PEN    H34 3490   2.923   1.705   4.394
   97PEN    H35 3491   2.689   1.641   4.070
   97PEN    H36 3492   2.889   1.722   4.168
   98PEN     C1 3493   2.758   2.755   3.258
   98PEN     C2 3494   2.857   2.812   3.175
   98PEN     C3 3495   2.635   2.706   3.197
   98PEN     C4 3496   2.776   2.745   3.397
   98PEN     C5 3497   2.839   2.823   3.037
   98PEN     H6 3498   2.938   2.845   3.214
   98PEN     C7 3499   2.619   2.718   3.058
   98PEN     C8 3500   2.537   2.651   3.280
   98PEN     C9 3501   2.678   2.689   3.480
   98PEN    H10 3502   2.857   2.777   3.434
   98PEN    C11 3503   2.939   2.881   2.951
   98PEN    C12 3504   2.717   2.775   2.977
   98PEN    H13 3505   2.539   2.687   3.018
   98PEN    H14 3506   2.455   2.619   3.243
   98PEN    C15 3507   2.555   2.641   3.419
   98PEN    C16 3508   2.693   2.677   3.619
   98PEN    C17 3509   2.919   2.891   2.817
   98PEN    H18 3510   3.020   2.914   2.988
   98PEN    C19 3511   2.700   2.787   2.835
   98PEN    C20 3512   2.455   2.583   3.502
   98PEN    C21 3513   2.596   2.621   3.700
   98PEN    H22 3514   2.774   2.709   3.659
   98PEN    C23 3515   2.798   2.843   2.759
   98PEN    H24 3516   2.986   2.930   2.762
   98PEN    H25 3517   2.620   2.757   2.794
   98PEN    H26 3518   2.375   2.551   3.463
   98PEN    C27 3519   2.473   2.573   3.640
   98PEN    C28 3520   2.612   2.608   3.842
   98PEN    H29 3521   2.786   2.849   2.665
   98PEN    C30 3522   2.374   2.515   3.726
   98PEN    C31 3523   2.514   2.553   3.918
   98PEN    H32 3524   2.692   2.639   3.883
   98PEN    C33 3525   2.394   2.505   3.860
   98PEN    H34 3526   2.293   2.482   3.689
   98PEN    H35 3527   2.526   2.547   4.012
   98PEN    H36 3528   2.327   2.466   3.915
   99PEN     C1 3529   2.882   3.851   4.663
   99PEN     C2 3530   2.981   3.908   4.580
   99PEN     C3 3531   2.759   3.802   4.603
   99PEN     C4 3532   2.900   3.841   4.802
   99PEN     C5 3533   2.963   3.918   4.443
   99PEN     H6 3534   3.061   3.940   4.619
   99PEN     C7 3535   2.743   3.814   4.464
   99PEN     C8 3536   2.660   3.746   4.686
   99PEN     C9 3537   2.802   3.785   4.885
   99PEN    H10 3538   2.981   3.872   4.839
   99PEN    C11 3539   3.063   3.977   4.356
   99PEN    C12 3540   2.841   3.870   4.383
   99PEN    H13 3541   2.663   3.782   4.424
   99PEN    H14 3542   2.579   3.715   4.649
   99PEN    C15 3543   2.678   3.736   4.825
   99PEN    C16 3544   2.817   3.773   5.024
   99PEN    C17 3545   3.043   3.986   4.223
   99PEN    H18 3546   3.144   4.009   4.394
   99PEN    C19 3547   2.824   3.883   4.241
   99PEN    C20 3548   2.579   3.679   4.908
   99PEN    C21 3549   2.720   3.716   5.105
   99PEN    H22 3550   2.897   3.805   5.065
   99PEN    C23 3551   2.922   3.938   4.164
   99PEN    H24 3552   3.110   4.026   4.168
   99PEN    H25 3553   2.744   3.852   4.199
   99PEN    H26 3554   2.499   3.647   4.869
   99PEN    C27 3555   2.597   3.669   5.046
   99PEN    C28 3556   2.736   3.704   5.248
   99PEN    H29 3557   2.910   3.945   4.070
   99PEN    C30 3558   2.497   3.610   5.132
   99PEN    C31 3559   2.638   3.649   5.324
   99PEN    H32 3560   2.816   3.735   5.289
   99PEN    C33 3561   2.517   3.601   5.265
   99PEN    H34 3562   2.417   3.578   5.094
   99PEN    H35 3563   2.650   3.642   5.418
   99PEN    H36 3564   2.450   3.561   5.320
  100PEN     C1 3565   2.357   0.777   2.013
  100PEN     C2 3566   2.258   0.720   2.097
  100PEN     C3 3567   2.480   0.826   2.074
  100PEN     C4 3568   2.339   0.787   1.875
  100PEN     C5 3569   2.276   0.710   2.234
  100PEN     H6 3570   2.178   0.688   2.058
  100PEN     C7 3571   2.496   0.814   2.213
  100PEN     C8 3572   2.579   0.882   1.991
  100PEN     C9 3573   2.438   0.843   1.792
  100PEN    H10 3574   2.258   0.756   1.838
  100PEN    C11 3575   2.176   0.651   2.320
  100PEN    C12 3576   2.398   0.757   2.294
  100PEN    H13 3577   2.576   0.846   2.253
  100PEN    H14 3578   2.660   0.913   2.028
  100PEN    C15 3579   2.561   0.892   1.852
  100PEN    C16 3580   2.422   0.855   1.653
  100PEN    C17 3581   2.196   0.642   2.454
  100PEN    H18 3582   2.095   0.619   2.283
  100PEN    C19 3583   2.415   0.745   2.436
  100PEN    C20 3584   2.660   0.949   1.769
  100PEN    C21 3585   2.519   0.912   1.572
  100PEN    H22 3586   2.342   0.823   1.612
  100PEN    C23 3587   2.317   0.690   2.513
  100PEN    H24 3588   2.129   0.602   2.509
  100PEN    H25 3589   2.495   0.776   2.478
  100PEN    H26 3590   2.740   0.981   1.808
  100PEN    C27 3591   2.642   0.959   1.631
  100PEN    C28 3592   2.503   0.924   1.429
  100PEN    H29 3593   2.329   0.683   2.607
  100PEN    C30 3594   2.742   1.018   1.545
  100PEN    C31 3595   2.601   0.979   1.353
  100PEN    H32 3596   2.423   0.893   1.388
  100PEN    C33 3597   2.722   1.027   1.412
  100PEN    H34 3598   2.823   1.050   1.583
  100PEN    H35 3599   2.589   0.986   1.259
  100PEN    H36 3600   2.789   1.067   1.357
  101PEN     C1 3601   2.431   1.545   2.013
  101PEN     C2 3602   2.332   1.488   2.097
  101PEN     C3 3603   2.554   1.594   2.074
  101PEN     C4 3604   2.413   1.555   1.875
  101PEN     C5 3605   2.350   1.478   2.234
  101PEN     H6 3606   2.251   1.456   2.058
  101PEN     C7 3607   2.570   1.582   2.213
  101PEN     C8 3608   2.652   1.650   1.991
  101PEN     C9 3609   2.511   1.611   1.792
  101PEN    H10 3610   2.332   1.523   1.838
  101PEN    C11 3611   2.250   1.419   2.320
  101PEN    C12 3612   2.472   1.525   2.294
  101PEN    H13 3613   2.650   1.614   2.253
  101PEN    H14 3614   2.733   1.681   2.028
  101PEN    C15 3615   2.634   1.660   1.852
  101PEN    C16 3616   2.495   1.623   1.653
  101PEN    C17 3617   2.270   1.409   2.454
  101PEN    H18 3618   2.169   1.387   2.283
  101PEN    C19 3619   2.488   1.513   2.436
  101PEN    C20 3620   2.733   1.717   1.769
  101PEN    C21 3621   2.593   1.679   1.572
  101PEN    H22 3622   2.415   1.591   1.612
  101PEN    C23 3623   2.391   1.458   2.513
  101PEN    H24 3624   2.203   1.370   2.509
  101PEN    H25 3625   2.568   1.543   2.478
  101PEN    H26 3626   2.814   1.749   1.808
  101PEN    C27 3627   2.716   1.727   1.631
  101PEN    C28 3628   2.577   1.692   1.429
  101PEN    H29 3629   2.403   1.451   2.607
  101PEN    C30 3630   2.815   1.786   1.545
  101PEN    C31 3631   2.675   1.747   1.353
  101PEN    H32 3632   2.497   1.661   1.388
  101PEN    C33 3633   2.795   1.795   1.412
  101PEN    H34 3634   2.896   1.818   1.583
  101PEN    H35 3635   2.662   1.754   1.259
  101PEN    H36 3636   2.862   1.834   1.357
  102PEN     C1 3637   2.481   1.873   3.419
  102PEN     C2 3638   2.382   1.816   3.502
  102PEN     C3 3639   2.604   1.921   3.480
  102PEN     C4 3640   2.463   1.883   3.280
  102PEN     C5 3641   2.400   1.805   3.640
  102PEN     H6 3642   2.301   1.783   3.463
  102PEN     C7 3643   2.620   1.910   3.619
  102PEN     C8 3644   2.702   1.977   3.397
  102PEN     C9 3645   2.561   1.939   3.197
  102PEN    H10 3646   2.382   1.851   3.243
  102PEN    C11 3647   2.300   1.747   3.726
  102PEN    C12 3648   2.522   1.853   3.700
  102PEN    H13 3649   2.700   1.941   3.659
  102PEN    H14 3650   2.784   2.009   3.434
  102PEN    C15 3651   2.684   1.987   3.258
  102PEN    C16 3652   2.546   1.951   3.058
  102PEN    C17 3653   2.320   1.737   3.860
  102PEN    H18 3654   2.219   1.714   3.689
  102PEN    C19 3655   2.539   1.840   3.842
  102PEN    C20 3656   2.784   2.045   3.175
  102PEN    C21 3657   2.643   2.007   2.977
  102PEN    H22 3658   2.465   1.919   3.018
  102PEN    C23 3659   2.441   1.785   3.918
  102PEN    H24 3660   2.253   1.698   3.915
  102PEN    H25 3661   2.619   1.871   3.883
  102PEN    H26 3662   2.864   2.077   3.214
  102PEN    C27 3663   2.766   2.055   3.037
  102PEN    C28 3664   2.627   2.020   2.835
  102PEN    H29 3665   2.453   1.779   4.012
  102PEN    C30 3666   2.865   2.113   2.951
  102PEN    C31 3667   2.725   2.075   2.759
  102PEN    H32 3668   2.547   1.989   2.794
  102PEN    C33 3669   2.845   2.123   2.817
  102PEN    H34 3670   2.946   2.146   2.988
  102PEN    H35 3671   2.713   2.081   2.665
  102PEN    H36 3672   2.912   2.162   2.762
  103PEN     C1 3673   2.734   2.315   4.663
  103PEN     C2 3674   2.834   2.372   4.580
  103PEN     C3 3675   2.611   2.266   4.603
  103PEN     C4 3676   2.752   2.305   4.802
  103PEN     C5 3677   2.816   2.382   4.443
  103PEN     H6 3678   2.914   2.404   4.619
  103PEN     C7 3679   2.596   2.278   4.464
  103PEN     C8 3680   2.513   2.211   4.686
  103PEN     C9 3681   2.654   2.249   4.885
  103PEN    H10 3682   2.834   2.337   4.839
  103PEN    C11 3683   2.915   2.441   4.356
  103PEN    C12 3684   2.693   2.335   4.383
  103PEN    H13 3685   2.516   2.246   4.424
  103PEN    H14 3686   2.432   2.179   4.649
  103PEN    C15 3687   2.531   2.200   4.825
  103PEN    C16 3688   2.670   2.237   5.024
  103PEN    C17 3689   2.896   2.451   4.223
  103PEN    H18 3690   2.996   2.473   4.394
  103PEN    C19 3691   2.677   2.347   4.241
  103PEN    C20 3692   2.432   2.143   4.908
  103PEN    C21 3693   2.572   2.181   5.105
  103PEN    H22 3694   2.750   2.269   5.065
  103PEN    C23 3695   2.775   2.402   4.164
  103PEN    H24 3696   2.962   2.490   4.168
  103PEN    H25 3697   2.597   2.317   4.199
  103PEN    H26 3698   2.351   2.111   4.869
  103PEN    C27 3699   2.450   2.133   5.046
  103PEN    C28 3700   2.589   2.168   5.248
  103PEN    H29 3701   2.763   2.409   4.070
  103PEN    C30 3702   2.350   2.075   5.132
  103PEN    C31 3703   2.491   2.113   5.324
  103PEN    H32 3704   2.669   2.199   5.289
  103PEN    C33 3705   2.370   2.065   5.265
  103PEN    H34 3706   2.269   2.042   5.094
  103PEN    H35 3707   2.503   2.107   5.418
  103PEN    H36 3708   2.303   2.026   5.320
  104PEN     C1 3709   2.808   3.083   4.663
  104PEN     C2 3710   2.907   3.140   4.580
  104PEN     C3 3711   2.685   3.034   4.603
  104PEN     C4 3712   2.826   3.073   4.802
  104PEN     C5 3713   2.889   3.150   4.443
  104PEN     H6 3714   2.988   3.172   4.619
  104PEN     C7 3715   2.669   3.046   4.464
  104PEN     C8 3716   2.587   2.978   4.686
  104PEN     C9 3717   2.728   3.017   4.885
  104PEN    H10 3718   2.907   3.104   4.839
  104PEN    C11 3719   2.989   3.209   4.356
  104PEN    C12 3720   2.767   3.103   4.383
  104PEN    H13 3721   2.589   3.014   4.424
  104PEN    H14 3722   2.506   2.947   4.649
  104PEN    C15 3723   2.605   2.968   4.825
  104PEN    C16 3724   2.744   3.005   5.024
  104PEN    C17 3725   2.969   3.219   4.223
  104PEN    H18 3726   3.070   3.241   4.394
  104PEN    C19 3727   2.751   3.115   4.241
  104PEN    C20 3728   2.506   2.911   4.908
  104PEN    C21 3729   2.646   2.949   5.105
  104PEN    H22 3730   2.824   3.037   5.065
  104PEN    C23 3731   2.848   3.170   4.164
  104PEN    H24 3732   3.036   3.258   4.168
  104PEN    H25 3733   2.671   3.085   4.199
  104PEN    H26 3734   2.425   2.879   4.869
  104PEN    C27 3735   2.523   2.901   5.046
  104PEN    C28 3736   2.662   2.936   5.248
  104PEN    H29 3737   2.836   3.177   4.070
  104PEN    C30 3738   2.424   2.842   5.132
  104PEN    C31 3739   2.564   2.881   5.324
  104PEN    H32 3740   2.742   2.967   5.289
  104PEN    C33 3741   2.444   2.833   5.265
  104PEN    H34 3742   2.343   2.810   5.094
  104PEN    H35 3743   2.577   2.874   5.418
  104PEN    H36 3744   2.377   2.793   5.320
  105PEN     C1 3745   2.505   2.313   2.013
  105PEN     C2 3746   2.405   2.256   2.097
  105PEN     C3 3747   2.628   2.362   2.074
  105PEN     C4 3748   2.487   2.323   1.875
  105PEN     C5 3749   2.423   2.246   2.234
  105PEN     H6 3750   2.325   2.224   2.058
  105PEN     C7 3751   2.643   2.350   2.213
  105PEN     C8 3752   2.726   2.417   1.991
  105PEN     C9 3753   2.585   2.379   1.792
  105PEN    H10 3754   2.405   2.291   1.838
  105PEN    C11 3755   2.324   2.187   2.320
  105PEN    C12 3756   2.546   2.293   2.294
  105PEN    H13 3757   2.723   2.381   2.253
  105PEN    H14 3758   2.807   2.449   2.028
  105PEN    C15 3759   2.708   2.428   1.852
  105PEN    C16 3760   2.569   2.391   1.653
  105PEN    C17 3761   2.343   2.177   2.454
  105PEN    H18 3762   2.243   2.155   2.283
  105PEN    C19 3763   2.562   2.281   2.436
  105PEN    C20 3764   2.807   2.485   1.769
  105PEN    C21 3765   2.667   2.447   1.572
  105PEN    H22 3766   2.489   2.359   1.612
  105PEN    C23 3767   2.464   2.226   2.513
  105PEN    H24 3768   2.277   2.138   2.509
  105PEN    H25 3769   2.642   2.311   2.478
  105PEN    H26 3770   2.888   2.517   1.808
  105PEN    C27 3771   2.789   2.495   1.631
  105PEN    C28 3772   2.650   2.460   1.429
  105PEN    H29 3773   2.476   2.219   2.607
  105PEN    C30 3774   2.889   2.553   1.545
  105PEN    C31 3775   2.748   2.515   1.353
  105PEN    H32 3776   2.570   2.429   1.388
  105PEN    C33 3777   2.869   2.563   1.412
  105PEN    H34 3778   2.970   2.586   1.583
  105PEN    H35 3779   2.736   2.521   1.259
  105PEN    H36 3780   2.936   2.602   1.357
  106PEN     C1 3781   2.578   3.081   2.013
  106PEN     C2 3782   2.479   3.024   2.097
  106PEN     C3 3783   2.701   3.130   2.074
  106PEN     C4 3784   2.560   3.091   1.875
  106PEN     C5 3785   2.497   3.013   2.234
  106PEN     H6 3786   2.398   2.991   2.058
  106PEN     C7 3787   2.717   3.118   2.213
  106PEN     C8 3788   2.799   3.185   1.991
  106PEN     C9 3789   2.658   3.147   1.792
  106PEN    H10 3790   2.479   3.059   1.838
  106PEN    C11 3791   2.397   2.955   2.320
  106PEN    C12 3792   2.619   3.061   2.294
  106PEN    H13 3793   2.797   3.149   2.253
  106PEN    H14 3794   2.881   3.217   2.028
  106PEN    C15 3795   2.781   3.195   1.852
  106PEN    C16 3796   2.643   3.159   1.653
  106PEN    C17 3797   2.417   2.945   2.454
  106PEN    H18 3798   2.316   2.922   2.283
  106PEN    C19 3799   2.636   3.049   2.436
  106PEN    C20 3800   2.881   3.253   1.769
  106PEN    C21 3801   2.740   3.215   1.572
  106PEN    H22 3802   2.563   3.127   1.612
  106PEN    C23 3803   2.538   2.993   2.513
  106PEN    H24 3804   2.350   2.906   2.509
  106PEN    H25 3805   2.716   3.079   2.478
  106PEN    H26 3806   2.961   3.285   1.808
  106PEN    C27 3807   2.863   3.263   1.631
  106PEN    C28 3808   2.724   3.228   1.429
  106PEN    H29 3809   2.550   2.987   2.607
  106PEN    C30 3810   2.962   3.321   1.545
  106PEN    C31 3811   2.822   3.283   1.353
  106PEN    H32 3812   2.644   3.197   1.388
  106PEN    C33 3813   2.943   3.331   1.412
  106PEN    H34 3814   3.043   3.354   1.583
  106PEN    H35 3815   2.810   3.289   1.259
  106PEN    H36 3816   3.009   3.370   1.357
  107PEN     C1 3817   2.628   3.408   3.419
  107PEN     C2 3818   2.529   3.351   3.502
  107PEN     C3 3819   2.751   3.457   3.480
  107PEN     C4 3820   2.610   3.419   3.280
  107PEN     C5 3821   2.547   3.341   3.640
  107PEN     H6 3822   2.449   3.319   3.463
  107PEN     C7 3823   2.767   3.445   3.619
  107PEN     C8 3824   2.849   3.513   3.397
  107PEN     C9 3825   2.708   3.474   3.197
  107PEN    H10 3826   2.529   3.387   3.243
  107PEN    C11 3827   2.447   3.283   3.726
  107PEN    C12 3828   2.669   3.389   3.700
  107PEN    H13 3829   2.847   3.477   3.659
  107PEN    H14 3830   2.931   3.545   3.434
  107PEN    C15 3831   2.832   3.523   3.258
  107PEN    C16 3832   2.693   3.486   3.058
  107PEN    C17 3833   2.467   3.273   3.860
  107PEN    H18 3834   2.366   3.250   3.689
  107PEN    C19 3835   2.686   3.376   3.842
  107PEN    C20 3836   2.931   3.580   3.175
  107PEN    C21 3837   2.790   3.543   2.977
  107PEN    H22 3838   2.613   3.455   3.018
  107PEN    C23 3839   2.588   3.321   3.918
  107PEN    H24 3840   2.400   3.234   3.915
  107PEN    H25 3841   2.766   3.407   3.883
  107PEN    H26 3842   3.011   3.612   3.214
  107PEN    C27 3843   2.913   3.590   3.037
  107PEN    C28 3844   2.774   3.555   2.835
  107PEN    H29 3845   2.600   3.315   4.012
  107PEN    C30 3846   3.012   3.649   2.951
  107PEN    C31 3847   2.872   3.610   2.759
  107PEN    H32 3848   2.694   3.525   2.794
  107PEN    C33 3849   2.993   3.659   2.817
  107PEN    H34 3850   3.093   3.681   2.988
  107PEN    H35 3851   2.860   3.617   2.665
  107PEN    H36 3852   3.060   3.698   2.762
  108PEN     C1 3853   2.407   1.105   3.419
  108PEN     C2 3854   2.308   1.048   3.502
  108PEN     C3 3855   2.531   1.154   3.480
  108PEN     C4 3856   2.390   1.115   3.280
  108PEN     C5 3857   2.326   1.038   3.640
  108PEN     H6 3858   2.228   1.016   3.463
  108PEN     C7 3859   2.546   1.142   3.619
  108PEN     C8 3860   2.629   1.209   3.397
  108PEN     C9 3861   2.488   1.171   3.197
  108PEN    H10 3862   2.308   1.083   3.243
  108PEN    C11 3863   2.227   0.979   3.726
  108PEN    C12 3864   2.449   1.085   3.700
  108PEN    H13 3865   2.626   1.173   3.659
  108PEN    H14 3866   2.710   1.241   3.434
  108PEN    C15 3867   2.611   1.220   3.258
  108PEN    C16 3868   2.472   1.183   3.058
  108PEN    C17 3869   2.246   0.969   3.860
  108PEN    H18 3870   2.146   0.947   3.689
  108PEN    C19 3871   2.465   1.073   3.842
  108PEN    C20 3872   2.710   1.277   3.175
  108PEN    C21 3873   2.570   1.239   2.977
  108PEN    H22 3874   2.392   1.151   3.018
  108PEN    C23 3875   2.367   1.018   3.918
  108PEN    H24 3876   2.179   0.930   3.915
  108PEN    H25 3877   2.545   1.103   3.883
  108PEN    H26 3878   2.790   1.309   3.214
  108PEN    C27 3879   2.692   1.287   3.037
  108PEN    C28 3880   2.553   1.252   2.835
  108PEN    H29 3881   2.379   1.011   4.012
  108PEN    C30 3882   2.792   1.345   2.951
  108PEN    C31 3883   2.651   1.307   2.759
  108PEN    H32 3884   2.473   1.221   2.794
  108PEN    C33 3885   2.772   1.355   2.817
  108PEN    H34 3886   2.873   1.378   2.988
  108PEN    H35 3887   2.639   1.313   2.665
  108PEN    H36 3888   2.839   1.394   2.762
  109PEN     C1 3889   2.307   0.449   0.608
  109PEN     C2 3890   2.208   0.392   0.691
  109PEN     C3 3891   2.430   0.498   0.668
  109PEN     C4 3892   2.289   0.460   0.469
  109PEN     C5 3893   2.226   0.382   0.829
  109PEN     H6 3894   2.127   0.360   0.652
  109PEN     C7 3895   2.446   0.486   0.807
  109PEN     C8 3896   2.528   0.554   0.585
  109PEN     C9 3897   2.387   0.515   0.386
  109PEN    H10 3898   2.208   0.428   0.432
  109PEN    C11 3899   2.126   0.324   0.915
  109PEN    C12 3900   2.348   0.430   0.888
  109PEN    H13 3901   2.526   0.518   0.847
  109PEN    H14 3902   2.610   0.586   0.622
  109PEN    C15 3903   2.510   0.564   0.446
  109PEN    C16 3904   2.372   0.527   0.247
  109PEN    C17 3905   2.146   0.314   1.048
  109PEN    H18 3906   2.045   0.291   0.877
  109PEN    C19 3907   2.365   0.417   1.031
  109PEN    C20 3908   2.610   0.621   0.363
  109PEN    C21 3909   2.469   0.584   0.166
  109PEN    H22 3910   2.292   0.496   0.207
  109PEN    C23 3911   2.267   0.362   1.107
  109PEN    H24 3912   2.079   0.275   1.103
  109PEN    H25 3913   2.445   0.448   1.072
  109PEN    H26 3914   2.690   0.653   0.402
  109PEN    C27 3915   2.592   0.631   0.226
  109PEN    C28 3916   2.453   0.596   0.024
  109PEN    H29 3917   2.279   0.356   1.201
  109PEN    C30 3918   2.691   0.690   0.139
  109PEN    C31 3919   2.551   0.651  -0.053
  109PEN    H32 3920   2.373   0.566  -0.018
  109PEN    C33 3921   2.672   0.700   0.006
  109PEN    H34 3922   2.772   0.722   0.177
  109PEN    H35 3923   2.539   0.658  -0.147
  109PEN    H36 3924   2.738   0.739  -0.049
  110PEN     C1 3925   2.454   1.985   0.608
  110PEN     C2 3926   2.355   1.928   0.691
  110PEN     C3 3927   2.578   2.034   0.668
  110PEN     C4 3928   2.436   1.995   0.469
  110PEN     C5 3929   2.373   1.918   0.829
  110PEN     H6 3930   2.275   1.896   0.652
  110PEN     C7 3931   2.593   2.022   0.807
  110PEN     C8 3932   2.676   2.090   0.585
  110PEN     C9 3933   2.535   2.051   0.386
  110PEN    H10 3934   2.355   1.964   0.432
  110PEN    C11 3935   2.274   1.859   0.915
  110PEN    C12 3936   2.496   1.965   0.888
  110PEN    H13 3937   2.673   2.054   0.847
  110PEN    H14 3938   2.757   2.121   0.622
  110PEN    C15 3939   2.658   2.100   0.446
  110PEN    C16 3940   2.519   2.063   0.247
  110PEN    C17 3941   2.293   1.850   1.048
  110PEN    H18 3942   2.193   1.827   0.877
  110PEN    C19 3943   2.512   1.953   1.031
  110PEN    C20 3944   2.757   2.157   0.363
  110PEN    C21 3945   2.617   2.120   0.166
  110PEN    H22 3946   2.439   2.031   0.207
  110PEN    C23 3947   2.414   1.898   1.107
  110PEN    H24 3948   2.226   1.810   1.103
  110PEN    H25 3949   2.592   1.984   1.072
  110PEN    H26 3950   2.837   2.189   0.402
  110PEN    C27 3951   2.739   2.167   0.226
  110PEN    C28 3952   2.600   2.132   0.024
  110PEN    H29 3953   2.426   1.891   1.201
  110PEN    C30 3954   2.839   2.226   0.139
  110PEN    C31 3955   2.698   2.187  -0.053
  110PEN    H32 3956   2.520   2.101  -0.018
  110PEN    C33 3957   2.819   2.235   0.006
  110PEN    H34 3958   2.920   2.258   0.177
  110PEN    H35 3959   2.686   2.194  -0.147
  110PEN    H36 3960   2.886   2.275  -0.049
  111PEN     C1 3961   2.528   2.753   0.608
  111PEN     C2 3962   2.429   2.696   0.691
  111PEN     C3 3963   2.651   2.802   0.668
  111PEN     C4 3964   2.510   2.763   0.469
  111PEN     C5 3965   2.447   2.686   0.829
  111PEN     H6 3966   2.348   2.664   0.652
  111PEN     C7 3967   2.667   2.790   0.807
  111PEN     C8 3968   2.749   2.858   0.585
  111PEN     C9 3969   2.608   2.819   0.386
  111PEN    H10 3970   2.429   2.732   0.432
  111PEN    C11 3971   2.347   2.627   0.915
  111PEN    C12 3972   2.569   2.733   0.888
  111PEN    H13 3973   2.747   2.822   0.847
  111PEN    H14 3974   2.831   2.889   0.622
  111PEN    C15 3975   2.731   2.868   0.446
  111PEN    C16 3976   2.593   2.831   0.247
  111PEN    C17 3977   2.367   2.617   1.048
  111PEN    H18 3978   2.266   2.595   0.877
  111PEN    C19 3979   2.586   2.721   1.031
  111PEN    C20 3980   2.830   2.925   0.363
  111PEN    C21 3981   2.690   2.887   0.166
  111PEN    H22 3982   2.512   2.799   0.207
  111PEN    C23 3983   2.488   2.666   1.107
  111PEN    H24 3984   2.300   2.578   1.103
  111PEN    H25 3985   2.666   2.751   1.072
  111PEN    H26 3986   2.911   2.957   0.402
  111PEN    C27 3987   2.813   2.935   0.226
  111PEN    C28 3988   2.674   2.900   0.024
  111PEN    H29 3989   2.500   2.659   1.201
  111PEN    C30 3990   2.912   2.994   0.139
  111PEN    C31 3991   2.772   2.955  -0.053
  111PEN    H32 3992   2.594   2.869  -0.018
  111PEN    C33 3993   2.892   3.003   0.006
  111PEN    H34 3994   2.993   3.026   0.177
  111PEN    H35 3995   2.760   2.962  -0.147
  111PEN    H36 3996   2.959   3.042  -0.049
  112PEN     C1 3997   2.381   1.217   0.608
  112PEN     C2 3998   2.282   1.160   0.691
  112PEN     C3 3999   2.504   1.266   0.668
  112PEN     C4 4000   2.363   1.228   0.469
  112PEN     C5 4001   2.299   1.150   0.829
  112PEN     H6 4002   2.201   1.128   0.652
  112PEN     C7 4003   2.520   1.254   0.807
  112PEN     C8 4004   2.602   1.322   0.585
  112PEN     C9 4005   2.461   1.283   0.386
  112PEN    H10 4006   2.282   1.196   0.432
  112PEN    C11 4007   2.200   1.091   0.915
  112PEN    C12 4008   2.422   1.198   0.888
  112PEN    H13 4009   2.600   1.286   0.847
  112PEN    H14 4010   2.683   1.354   0.622
  112PEN    C15 4011   2.584   1.332   0.446
  112PEN    C16 4012   2.445   1.295   0.247
  112PEN    C17 4013   2.220   1.082   1.048
  112PEN    H18 4014   2.119   1.059   0.877
  112PEN    C19 4015   2.438   1.185   1.031
  112PEN    C20 4016   2.683   1.389   0.363
  112PEN    C21 4017   2.543   1.352   0.166
  112PEN    H22 4018   2.365   1.263   0.207
  112PEN    C23 4019   2.340   1.130   1.107
  112PEN    H24 4020   2.153   1.043   1.103
  112PEN    H25 4021   2.518   1.216   1.072
  112PEN    H26 4022   2.764   1.421   0.402
  112PEN    C27 4023   2.665   1.399   0.226
  112PEN    C28 4024   2.527   1.364   0.024
  112PEN    H29 4025   2.353   1.124   1.201
  112PEN    C30 4026   2.765   1.458   0.139
  112PEN    C31 4027   2.624   1.419  -0.053
  112PEN    H32 4028   2.447   1.334  -0.018
  112PEN    C33 4029   2.745   1.468   0.006
  112PEN    H34 4030   2.846   1.490   0.177
  112PEN    H35 4031   2.612   1.426  -0.147
  112PEN    H36 4032   2.812   1.507  -0.049
  113PEN     C1 4033   0.673   3.847   3.239
  113PEN     C2 4034   0.771   3.846   3.137
  113PEN     C3 4035   0.548   3.920   3.216
  113PEN     C4 4036   0.690   3.779   3.361
  113PEN     C5 4037   0.752   3.912   3.017
  113PEN     H6 4038   0.853   3.800   3.152
  113PEN     C7 4039   0.531   3.988   3.094
  113PEN     C8 4040   0.451   3.920   3.316
  113PEN     C9 4041   0.592   3.779   3.461
  113PEN    H10 4042   0.771   3.732   3.374
  113PEN    C11 4043   0.850   3.911   2.914
  113PEN    C12 4044   0.629   3.985   2.995
  113PEN    H13 4045   0.451   4.036   3.078
  113PEN    H14 4046   0.369   3.968   3.303
  113PEN    C15 4047   0.468   3.852   3.438
  113PEN    C16 4048   0.609   3.712   3.583
  113PEN    C17 4049   0.829   3.975   2.796
  113PEN    H18 4050   0.932   3.864   2.927
  113PEN    C19 4051   0.611   4.051   2.869
  113PEN    C20 4052   0.369   3.853   3.540
  113PEN    C21 4053   0.512   3.715   3.682
  113PEN    H22 4054   0.689   3.663   3.599
  113PEN    C23 4055   0.707   4.047   2.773
  113PEN    H24 4056   0.896   3.973   2.729
  113PEN    H25 4057   0.531   4.099   2.853
  113PEN    H26 4058   0.288   3.900   3.525
  113PEN    C27 4059   0.389   3.787   3.660
  113PEN    C28 4060   0.529   3.649   3.808
  113PEN    H29 4061   0.693   4.091   2.691
  113PEN    C30 4062   0.291   3.789   3.763
  113PEN    C31 4063   0.434   3.653   3.904
  113PEN    H32 4064   0.610   3.600   3.824
  113PEN    C33 4065   0.312   3.724   3.881
  113PEN    H34 4066   0.209   3.836   3.750
  113PEN    H35 4067   0.447   3.608   3.986
  113PEN    H36 4068   0.245   3.727   3.948
  114PEN     C1 4069   0.418   3.525   2.032
  114PEN     C2 4070   0.319   3.525   2.134
  114PEN     C3 4071   0.542   3.452   2.055
  114PEN     C4 4072   0.401   3.593   1.911
  114PEN     C5 4073   0.339   3.459   2.254
  114PEN     H6 4074   0.238   3.572   2.119
  114PEN     C7 4075   0.559   3.384   2.178
  114PEN     C8 4076   0.640   3.451   1.955
  114PEN     C9 4077   0.498   3.592   1.810
  114PEN    H10 4078   0.319   3.640   1.898
  114PEN    C11 4079   0.240   3.461   2.358
  114PEN    C12 4080   0.462   3.387   2.277
  114PEN    H13 4081   0.639   3.335   2.193
  114PEN    H14 4082   0.721   3.404   1.968
  114PEN    C15 4083   0.623   3.519   1.834
  114PEN    C16 4084   0.481   3.660   1.688
  114PEN    C17 4085   0.262   3.397   2.475
  114PEN    H18 4086   0.159   3.508   2.344
  114PEN    C19 4087   0.479   3.321   2.402
  114PEN    C20 4088   0.721   3.519   1.732
  114PEN    C21 4089   0.579   3.657   1.589
  114PEN    H22 4090   0.401   3.709   1.673
  114PEN    C23 4091   0.383   3.325   2.498
  114PEN    H24 4092   0.195   3.399   2.543
  114PEN    H25 4093   0.559   3.273   2.419
  114PEN    H26 4094   0.803   3.472   1.746
  114PEN    C27 4095   0.702   3.585   1.612
  114PEN    C28 4096   0.561   3.723   1.464
  114PEN    H29 4097   0.397   3.281   2.581
  114PEN    C30 4098   0.800   3.583   1.508
  114PEN    C31 4099   0.657   3.719   1.368
  114PEN    H32 4100   0.481   3.771   1.447
  114PEN    C33 4101   0.779   3.647   1.391
  114PEN    H34 4102   0.881   3.536   1.522
  114PEN    H35 4103   0.643   3.763   1.285
  114PEN    H36 4104   0.846   3.645   1.323
  115PEN     C1 4105   0.224   1.109   4.843
  115PEN     C2 4106   0.125   1.109   4.945
  115PEN     C3 4107   0.348   1.036   4.867
  115PEN     C4 4108   0.207   1.177   4.722
  115PEN     C5 4109   0.145   1.043   5.065
  115PEN     H6 4110   0.044   1.156   4.931
  115PEN     C7 4111   0.365   0.968   4.989
  115PEN     C8 4112   0.446   1.035   4.766
  115PEN     C9 4113   0.304   1.176   4.622
  115PEN    H10 4114   0.125   1.224   4.709
  115PEN    C11 4115   0.046   1.045   5.169
  115PEN    C12 4116   0.268   0.971   5.088
  115PEN    H13 4117   0.445   0.919   5.004
  115PEN    H14 4118   0.527   0.988   4.779
  115PEN    C15 4119   0.429   1.103   4.645
  115PEN    C16 4120   0.287   1.244   4.499
  115PEN    C17 4121   0.067   0.981   5.286
  115PEN    H18 4122  -0.035   1.092   5.155
  115PEN    C19 4123   0.285   0.905   5.213
  115PEN    C20 4124   0.527   1.103   4.543
  115PEN    C21 4125   0.384   1.241   4.400
  115PEN    H22 4126   0.207   1.293   4.484
  115PEN    C23 4127   0.189   0.909   5.309
  115PEN    H24 4128   0.001   0.983   5.354
  115PEN    H25 4129   0.365   0.857   5.230
  115PEN    H26 4130   0.608   1.056   4.558
  115PEN    C27 4131   0.507   1.169   4.423
  115PEN    C28 4132   0.367   1.307   4.275
  115PEN    H29 4133   0.203   0.865   5.392
  115PEN    C30 4134   0.606   1.167   4.319
  115PEN    C31 4135   0.463   1.303   4.179
  115PEN    H32 4136   0.287   1.355   4.258
  115PEN    C33 4137   0.585   1.231   4.202
  115PEN    H34 4138   0.687   1.120   4.333
  115PEN    H35 4139   0.449   1.347   4.096
  115PEN    H36 4140   0.651   1.229   4.134
  116PEN     C1 4141   0.549   2.751   1.834
  116PEN     C2 4142   0.648   2.751   1.732
  116PEN     C3 4143   0.425   2.824   1.810
  116PEN     C4 4144   0.566   2.683   1.955
  116PEN     C5 4145   0.628   2.817   1.612
  116PEN     H6 4146   0.729   2.704   1.746
  116PEN     C7 4147   0.408   2.892   1.688
  116PEN     C8 4148   0.327   2.825   1.911
  116PEN     C9 4149   0.469   2.684   2.055
  116PEN    H10 4150   0.648   2.636   1.968
  116PEN    C11 4151   0.726   2.815   1.508
  116PEN    C12 4152   0.505   2.889   1.589
  116PEN    H13 4153   0.328   2.941   1.673
  116PEN    H14 4154   0.246   2.872   1.898
  116PEN    C15 4155   0.344   2.757   2.032
  116PEN    C16 4156   0.486   2.616   2.178
  116PEN    C17 4157   0.705   2.880   1.391
  116PEN    H18 4158   0.808   2.768   1.522
  116PEN    C19 4159   0.488   2.955   1.464
  116PEN    C20 4160   0.246   2.757   2.134
  116PEN    C21 4161   0.388   2.619   2.277
  116PEN    H22 4162   0.566   2.568   2.193
  116PEN    C23 4163   0.583   2.951   1.368
  116PEN    H24 4164   0.772   2.877   1.323
  116PEN    H25 4165   0.407   3.003   1.447
  116PEN    H26 4166   0.164   2.804   2.119
  116PEN    C27 4167   0.265   2.691   2.254
  116PEN    C28 4168   0.406   2.553   2.402
  116PEN    H29 4169   0.570   2.995   1.285
  116PEN    C30 4170   0.167   2.693   2.358
  116PEN    C31 4171   0.310   2.557   2.498
  116PEN    H32 4172   0.486   2.505   2.419
  116PEN    C33 4173   0.188   2.629   2.475
  116PEN    H34 4174   0.085   2.740   2.344
  116PEN    H35 4175   0.324   2.513   2.581
  116PEN    H36 4176   0.121   2.631   2.543
  117PEN     C1 4177   0.444   3.412   4.843
  117PEN     C2 4178   0.346   3.413   4.945
  117PEN     C3 4179   0.569   3.339   4.867
  117PEN     C4 4180   0.427   3.480   4.722
  117PEN     C5 4181   0.366   3.347   5.065
  117PEN     H6 4182   0.265   3.459   4.931
  117PEN     C7 4183   0.586   3.272   4.989
  117PEN     C8 4184   0.666   3.339   4.766
  117PEN     C9 4185   0.525   3.480   4.622
  117PEN    H10 4186   0.346   3.527   4.709
  117PEN    C11 4187   0.267   3.348   5.169
  117PEN    C12 4188   0.489   3.274   5.088
  117PEN    H13 4189   0.666   3.223   5.004
  117PEN    H14 4190   0.748   3.292   4.779
  117PEN    C15 4191   0.649   3.407   4.645
  117PEN    C16 4192   0.508   3.547   4.499
  117PEN    C17 4193   0.288   3.284   5.286
  117PEN    H18 4194   0.186   3.395   5.155
  117PEN    C19 4195   0.506   3.208   5.213
  117PEN    C20 4196   0.748   3.406   4.543
  117PEN    C21 4197   0.605   3.545   4.400
  117PEN    H22 4198   0.428   3.596   4.484
  117PEN    C23 4199   0.410   3.213   5.309
  117PEN    H24 4200   0.222   3.286   5.354
  117PEN    H25 4201   0.586   3.160   5.230
  117PEN    H26 4202   0.829   3.360   4.558
  117PEN    C27 4203   0.728   3.472   4.423
  117PEN    C28 4204   0.588   3.611   4.275
  117PEN    H29 4205   0.424   3.168   5.392
  117PEN    C30 4206   0.827   3.471   4.319
  117PEN    C31 4207   0.684   3.606   4.179
  117PEN    H32 4208   0.508   3.659   4.258
  117PEN    C33 4209   0.806   3.535   4.202
  117PEN    H34 4210   0.908   3.424   4.333
  117PEN    H35 4211   0.670   3.651   4.096
  117PEN    H36 4212   0.872   3.533   4.134
  118PEN     C1 4213   0.452   1.543   3.239
  118PEN     C2 4214   0.550   1.543   3.137
  118PEN     C3 4215   0.328   1.616   3.216
  118PEN     C4 4216   0.469   1.475   3.361
  118PEN     C5 4217   0.531   1.609   3.017
  118PEN     H6 4218   0.632   1.496   3.152
  118PEN     C7 4219   0.311   1.684   3.094
  118PEN     C8 4220   0.230   1.617   3.316
  118PEN     C9 4221   0.371   1.476   3.461
  118PEN    H10 4222   0.550   1.428   3.374
  118PEN    C11 4223   0.629   1.607   2.914
  118PEN    C12 4224   0.408   1.681   2.995
  118PEN    H13 4225   0.230   1.733   3.078
  118PEN    H14 4226   0.149   1.664   3.303
  118PEN    C15 4227   0.247   1.549   3.438
  118PEN    C16 4228   0.389   1.408   3.583
  118PEN    C17 4229   0.608   1.672   2.796
  118PEN    H18 4230   0.711   1.560   2.927
  118PEN    C19 4231   0.391   1.747   2.869
  118PEN    C20 4232   0.149   1.549   3.540
  118PEN    C21 4233   0.291   1.411   3.682
  118PEN    H22 4234   0.469   1.359   3.599
  118PEN    C23 4235   0.486   1.743   2.773
  118PEN    H24 4236   0.675   1.669   2.729
  118PEN    H25 4237   0.310   1.795   2.853
  118PEN    H26 4238   0.067   1.596   3.525
  118PEN    C27 4239   0.168   1.483   3.660
  118PEN    C28 4240   0.308   1.345   3.808
  118PEN    H29 4241   0.473   1.787   2.691
  118PEN    C30 4242   0.070   1.485   3.763
  118PEN    C31 4243   0.213   1.349   3.904
  118PEN    H32 4244   0.389   1.297   3.824
  118PEN    C33 4245   0.091   1.421   3.881
  118PEN    H34 4246  -0.012   1.532   3.750
  118PEN    H35 4247   0.227   1.305   3.986
  118PEN    H36 4248   0.024   1.423   3.948
  119PEN     C1 4249   0.197   1.221   2.032
  119PEN     C2 4250   0.099   1.222   2.134
  119PEN     C3 4251   0.321   1.148   2.055
  119PEN     C4 4252   0.180   1.289   1.911
  119PEN     C5 4253   0.118   1.156   2.254
  119PEN     H6 4254   0.017   1.268   2.119
  119PEN     C7 4255   0.338   1.081   2.178
  119PEN     C8 4256   0.419   1.148   1.955
  119PEN     C9 4257   0.277   1.289   1.810
  119PEN    H10 4258   0.099   1.336   1.898
  119PEN    C11 4259   0.020   1.157   2.358
  119PEN    C12 4260   0.241   1.083   2.277
  119PEN    H13 4261   0.419   1.032   2.193
  119PEN    H14 4262   0.500   1.100   1.968
  119PEN    C15 4263   0.402   1.216   1.834
  119PEN    C16 4264   0.260   1.356   1.688
  119PEN    C17 4265   0.041   1.093   2.475
  119PEN    H18 4266  -0.062   1.204   2.344
  119PEN    C19 4267   0.258   1.017   2.402
  119PEN    C20 4268   0.500   1.215   1.732
  119PEN    C21 4269   0.358   1.354   1.589
  119PEN    H22 4270   0.180   1.405   1.673
  119PEN    C23 4271   0.163   1.022   2.498
  119PEN    H24 4272  -0.026   1.095   2.543
  119PEN    H25 4273   0.339   0.969   2.419
  119PEN    H26 4274   0.582   1.168   1.746
  119PEN    C27 4275   0.481   1.281   1.612
  119PEN    C28 4276   0.341   1.420   1.464
  119PEN    H29 4277   0.176   0.977   2.581
  119PEN    C30 4278   0.579   1.279   1.508
  119PEN    C31 4279   0.436   1.415   1.368
  119PEN    H32 4280   0.260   1.468   1.447
  119PEN    C33 4281   0.558   1.344   1.391
  119PEN    H34 4282   0.661   1.233   1.522
  119PEN    H35 4283   0.422   1.460   1.285
  119PEN    H36 4284   0.625   1.341   1.323
  120PEN     C1 4285   0.297   1.877   4.843
  120PEN     C2 4286   0.199   1.877   4.945
  120PEN     C3 4287   0.422   1.804   4.867
  120PEN     C4 4288   0.280   1.945   4.722
  120PEN     C5 4289   0.218   1.811   5.065
  120PEN     H6 4290   0.117   1.924   4.931
  120PEN     C7 4291   0.439   1.736   4.989
  120PEN     C8 4292   0.519   1.803   4.766
  120PEN     C9 4293   0.378   1.944   4.622
  120PEN    H10 4294   0.199   1.992   4.709
  120PEN    C11 4295   0.120   1.813   5.169
  120PEN    C12 4296   0.341   1.739   5.088
  120PEN    H13 4297   0.519   1.687   5.004
  120PEN    H14 4298   0.601   1.756   4.779
  120PEN    C15 4299   0.502   1.871   4.645
  120PEN    C16 4300   0.361   2.012   4.499
  120PEN    C17 4301   0.141   1.748   5.286
  120PEN    H18 4302   0.038   1.860   5.155
  120PEN    C19 4303   0.359   1.673   5.213
  120PEN    C20 4304   0.601   1.871   4.543
  120PEN    C21 4305   0.458   2.009   4.400
  120PEN    H22 4306   0.281   2.060   4.484
  120PEN    C23 4307   0.263   1.677   5.309
  120PEN    H24 4308   0.074   1.751   5.354
  120PEN    H25 4309   0.439   1.625   5.230
  120PEN    H26 4310   0.682   1.824   4.558
  120PEN    C27 4311   0.581   1.937   4.423
  120PEN    C28 4312   0.441   2.075   4.275
  120PEN    H29 4313   0.277   1.632   5.392
  120PEN    C30 4314   0.679   1.935   4.319
  120PEN    C31 4315   0.537   2.071   4.179
  120PEN    H32 4316   0.360   2.123   4.258
  120PEN    C33 4317   0.658   1.999   4.202
  120PEN    H34 4318   0.761   1.888   4.333
  120PEN    H35 4319   0.523   2.115   4.096
  120PEN    H36 4320   0.725   1.997   4.134
  121PEN     C1 4321   0.475   1.984   1.834
  121PEN     C2 4322   0.574   1.983   1.732
  121PEN     C3 4323   0.351   2.056   1.810
  121PEN     C4 4324   0.493   1.916   1.955
  121PEN     C5 4325   0.554   2.049   1.612
  121PEN     H6 4326   0.655   1.936   1.746
  121PEN     C7 4327   0.334   2.124   1.688
  121PEN     C8 4328   0.254   2.057   1.911
  121PEN     C9 4329   0.395   1.916   2.055
  121PEN    H10 4330   0.574   1.868   1.968
  121PEN    C11 4331   0.653   2.047   1.508
  121PEN    C12 4332   0.431   2.121   1.589
  121PEN    H13 4333   0.254   2.173   1.673
  121PEN    H14 4334   0.172   2.104   1.898
  121PEN    C15 4335   0.271   1.989   2.032
  121PEN    C16 4336   0.412   1.848   2.178
  121PEN    C17 4337   0.632   2.112   1.391
  121PEN    H18 4338   0.734   2.000   1.522
  121PEN    C19 4339   0.414   2.187   1.464
  121PEN    C20 4340   0.172   1.989   2.134
  121PEN    C21 4341   0.315   1.851   2.277
  121PEN    H22 4342   0.492   1.800   2.193
  121PEN    C23 4343   0.510   2.183   1.368
  121PEN    H24 4344   0.698   2.109   1.323
  121PEN    H25 4345   0.334   2.236   1.447
  121PEN    H26 4346   0.091   2.036   2.119
  121PEN    C27 4347   0.192   1.924   2.254
  121PEN    C28 4348   0.332   1.785   2.402
  121PEN    H29 4349   0.496   2.228   1.285
  121PEN    C30 4350   0.093   1.925   2.358
  121PEN    C31 4351   0.236   1.789   2.498
  121PEN    H32 4352   0.412   1.737   2.419
  121PEN    C33 4353   0.114   1.861   2.475
  121PEN    H34 4354   0.012   1.972   2.344
  121PEN    H35 4355   0.250   1.745   2.581
  121PEN    H36 4356   0.048   1.863   2.543
  122PEN     C1 4357   0.526   2.311   3.239
  122PEN     C2 4358   0.624   2.311   3.137
  122PEN     C3 4359   0.401   2.384   3.216
  122PEN     C4 4360   0.543   2.243   3.361
  122PEN     C5 4361   0.604   2.377   3.017
  122PEN     H6 4362   0.705   2.264   3.152
  122PEN     C7 4363   0.384   2.452   3.094
  122PEN     C8 4364   0.304   2.385   3.316
  122PEN     C9 4365   0.445   2.244   3.461
  122PEN    H10 4366   0.624   2.196   3.374
  122PEN    C11 4367   0.703   2.375   2.914
  122PEN    C12 4368   0.481   2.449   2.995
  122PEN    H13 4369   0.304   2.501   3.078
  122PEN    H14 4370   0.222   2.432   3.303
  122PEN    C15 4371   0.321   2.317   3.438
  122PEN    C16 4372   0.462   2.176   3.583
  122PEN    C17 4373   0.682   2.439   2.796
  122PEN    H18 4374   0.784   2.328   2.927
  122PEN    C19 4375   0.464   2.515   2.869
  122PEN    C20 4376   0.222   2.317   3.540
  122PEN    C21 4377   0.365   2.179   3.682
  122PEN    H22 4378   0.542   2.127   3.599
  122PEN    C23 4379   0.560   2.511   2.773
  122PEN    H24 4380   0.748   2.437   2.729
  122PEN    H25 4381   0.384   2.563   2.853
  122PEN    H26 4382   0.141   2.364   3.525
  122PEN    C27 4383   0.242   2.251   3.660
  122PEN    C28 4384   0.382   2.113   3.808
  122PEN    H29 4385   0.546   2.555   2.691
  122PEN    C30 4386   0.143   2.253   3.763
  122PEN    C31 4387   0.286   2.117   3.904
  122PEN    H32 4388   0.462   2.065   3.824
  122PEN    C33 4389   0.165   2.189   3.881
  122PEN    H34 4390   0.062   2.300   3.750
  122PEN    H35 4391   0.300   2.073   3.986
  122PEN    H36 4392   0.098   2.191   3.948
  123PEN     C1 4393   0.371   2.644   4.843
  123PEN     C2 4394   0.272   2.645   4.945
  123PEN     C3 4395   0.495   2.571   4.867
  123PEN     C4 4396   0.354   2.712   4.722
  123PEN     C5 4397   0.292   2.579   5.065
  123PEN     H6 4398   0.191   2.692   4.931
  123PEN     C7 4399   0.512   2.504   4.989
  123PEN     C8 4400   0.593   2.571   4.766
  123PEN     C9 4401   0.451   2.712   4.622
  123PEN    H10 4402   0.272   2.760   4.709
  123PEN    C11 4403   0.194   2.581   5.169
  123PEN    C12 4404   0.415   2.506   5.088
  123PEN    H13 4405   0.592   2.455   5.004
  123PEN    H14 4406   0.674   2.524   4.779
  123PEN    C15 4407   0.576   2.639   4.645
  123PEN    C16 4408   0.434   2.780   4.499
  123PEN    C17 4409   0.215   2.516   5.286
  123PEN    H18 4410   0.112   2.627   5.155
  123PEN    C19 4411   0.432   2.441   5.213
  123PEN    C20 4412   0.674   2.638   4.543
  123PEN    C21 4413   0.532   2.777   4.400
  123PEN    H22 4414   0.354   2.828   4.484
  123PEN    C23 4415   0.336   2.445   5.309
  123PEN    H24 4416   0.148   2.519   5.354
  123PEN    H25 4417   0.512   2.392   5.230
  123PEN    H26 4418   0.756   2.592   4.558
  123PEN    C27 4419   0.655   2.704   4.423
  123PEN    C28 4420   0.514   2.843   4.275
  123PEN    H29 4421   0.350   2.400   5.392
  123PEN    C30 4422   0.753   2.703   4.319
  123PEN    C31 4423   0.610   2.838   4.179
  123PEN    H32 4424   0.434   2.891   4.258
  123PEN    C33 4425   0.732   2.767   4.202
  123PEN    H34 4426   0.835   2.656   4.333
  123PEN    H35 4427   0.596   2.883   4.096
  123PEN    H36 4428   0.799   2.765   4.134
  124PEN     C1 4429   0.278   0.120   0.428
  124PEN     C2 4430   0.377   0.120   0.326
  124PEN     C3 4431   0.154   0.193   0.405
  124PEN     C4 4432   0.295   0.052   0.549
  124PEN     C5 4433   0.357   0.186   0.206
  124PEN     H6 4434   0.458   0.073   0.340
  124PEN     C7 4435   0.137   0.261   0.282
  124PEN     C8 4436   0.056   0.194   0.505
  124PEN     C9 4437   0.198   0.053   0.650
  124PEN    H10 4438   0.377   0.005   0.562
  124PEN    C11 4439   0.455   0.184   0.102
  124PEN    C12 4440   0.234   0.258   0.183
  124PEN    H13 4441   0.057   0.310   0.267
  124PEN    H14 4442  -0.025   0.241   0.492
  124PEN    C15 4443   0.073   0.126   0.626
  124PEN    C16 4444   0.215  -0.015   0.772
  124PEN    C17 4445   0.434   0.248  -0.015
  124PEN    H18 4446   0.537   0.137   0.116
  124PEN    C19 4447   0.217   0.324   0.058
  124PEN    C20 4448  -0.025   0.126   0.728
  124PEN    C21 4449   0.117  -0.012   0.871
  124PEN    H22 4450   0.295  -0.064   0.787
  124PEN    C23 4451   0.313   0.320  -0.038
  124PEN    H24 4452   0.501   0.246  -0.083
  124PEN    H25 4453   0.137   0.372   0.041
  124PEN    H26 4454  -0.107   0.173   0.714
  124PEN    C27 4455  -0.006   0.060   0.848
  124PEN    C28 4456   0.135  -0.078   0.996
  124PEN    H29 4457   0.299   0.364  -0.121
  124PEN    C30 4458  -0.104   0.062   0.952
  124PEN    C31 4459   0.039  -0.074   1.092
  124PEN    H32 4460   0.215  -0.126   1.013
  124PEN    C33 4461  -0.083  -0.003   1.069
  124PEN    H34 4462  -0.186   0.109   0.938
  124PEN    H35 4463   0.053  -0.118   1.175
  124PEN    H36 4464  -0.150  -0.000   1.137
  125PEN     C1 4465   0.599   3.079   3.239
  125PEN     C2 4466   0.698   3.079   3.137
  125PEN     C3 4467   0.475   3.152   3.216
  125PEN     C4 4468   0.616   3.011   3.361
  125PEN     C5 4469   0.678   3.145   3.017
  125PEN     H6 4470   0.779   3.032   3.152
  125PEN     C7 4471   0.458   3.220   3.094
  125PEN     C8 4472   0.377   3.153   3.316
  125PEN     C9 4473   0.519   3.012   3.461
  125PEN    H10 4474   0.698   2.964   3.374
  125PEN    C11 4475   0.777   3.143   2.914
  125PEN    C12 4476   0.555   3.217   2.995
  125PEN    H13 4477   0.378   3.268   3.078
  125PEN    H14 4478   0.296   3.200   3.303
  125PEN    C15 4479   0.394   3.085   3.438
  125PEN    C16 4480   0.536   2.944   3.583
  125PEN    C17 4481   0.755   3.207   2.796
  125PEN    H18 4482   0.858   3.096   2.927
  125PEN    C19 4483   0.538   3.283   2.869
  125PEN    C20 4484   0.296   3.085   3.540
  125PEN    C21 4485   0.438   2.947   3.682
  125PEN    H22 4486   0.616   2.895   3.599
  125PEN    C23 4487   0.634   3.279   2.773
  125PEN    H24 4488   0.822   3.205   2.729
  125PEN    H25 4489   0.458   3.331   2.853
  125PEN    H26 4490   0.214   3.132   3.525
  125PEN    C27 4491   0.315   3.019   3.660
  125PEN    C28 4492   0.456   2.881   3.808
  125PEN    H29 4493   0.620   3.323   2.691
  125PEN    C30 4494   0.217   3.021   3.763
  125PEN    C31 4495   0.360   2.885   3.904
  125PEN    H32 4496   0.536   2.833   3.824
  125PEN    C33 4497   0.238   2.956   3.881
  125PEN    H34 4498   0.136   3.068   3.750
  125PEN    H35 4499   0.374   2.840   3.986
  125PEN    H36 4500   0.171   2.959   3.948
  126PEN     C1 4501   0.147   0.893   0.626
  126PEN     C2 4502   0.048   0.894   0.728
  126PEN     C3 4503   0.271   0.821   0.650
  126PEN     C4 4504   0.130   0.961   0.505
  126PEN     C5 4505   0.068   0.828   0.848
  126PEN     H6 4506  -0.033   0.941   0.714
  126PEN     C7 4507   0.288   0.753   0.772
  126PEN     C8 4508   0.369   0.820   0.549
  126PEN     C9 4509   0.227   0.961   0.405
  126PEN    H10 4510   0.048   1.009   0.492
  126PEN    C11 4511  -0.030   0.830   0.952
  126PEN    C12 4512   0.191   0.756   0.871
  126PEN    H13 4513   0.368   0.704   0.787
  126PEN    H14 4514   0.450   0.773   0.562
  126PEN    C15 4515   0.352   0.888   0.428
  126PEN    C16 4516   0.210   1.029   0.282
  126PEN    C17 4517  -0.009   0.765   1.069
  126PEN    H18 4518  -0.112   0.877   0.938
  126PEN    C19 4519   0.208   0.690   0.996
  126PEN    C20 4520   0.450   0.888   0.326
  126PEN    C21 4521   0.308   1.026   0.183
  126PEN    H22 4522   0.130   1.077   0.267
  126PEN    C23 4523   0.112   0.694   1.092
  126PEN    H24 4524  -0.076   0.768   1.137
  126PEN    H25 4525   0.288   0.641   1.013
  126PEN    H26 4526   0.532   0.841   0.340
  126PEN    C27 4527   0.431   0.953   0.206
  126PEN    C28 4528   0.290   1.092   0.058
  126PEN    H29 4529   0.126   0.649   1.175
  126PEN    C30 4530   0.529   0.952   0.102
  126PEN    C31 4531   0.386   1.088  -0.038
  126PEN    H32 4532   0.210   1.140   0.041
  126PEN    C33 4533   0.508   1.016  -0.015
  126PEN    H34 4534   0.611   0.905   0.116
  126PEN    H35 4535   0.372   1.132  -0.121
  126PEN    H36 4536   0.575   1.014  -0.083
  127PEN     C1 4537   0.220   1.661   0.626
  127PEN     C2 4538   0.122   1.662   0.728
  127PEN     C3 4539   0.345   1.588   0.650
  127PEN     C4 4540   0.203   1.729   0.505
  127PEN     C5 4541   0.142   1.596   0.848
  127PEN     H6 4542   0.041   1.709   0.714
  127PEN     C7 4543   0.362   1.521   0.772
  127PEN     C8 4544   0.442   1.588   0.549
  127PEN     C9 4545   0.301   1.729   0.405
  127PEN    H10 4546   0.122   1.777   0.492
  127PEN    C11 4547   0.043   1.598   0.952
  127PEN    C12 4548   0.265   1.523   0.871
  127PEN    H13 4549   0.442   1.472   0.787
  127PEN    H14 4550   0.524   1.541   0.562
  127PEN    C15 4551   0.425   1.656   0.428
  127PEN    C16 4552   0.284   1.796   0.282
  127PEN    C17 4553   0.064   1.533   1.069
  127PEN    H18 4554  -0.038   1.644   0.938
  127PEN    C19 4555   0.282   1.457   0.996
  127PEN    C20 4556   0.524   1.655   0.326
  127PEN    C21 4557   0.381   1.794   0.183
  127PEN    H22 4558   0.204   1.845   0.267
  127PEN    C23 4559   0.186   1.462   1.092
  127PEN    H24 4560  -0.002   1.536   1.137
  127PEN    H25 4561   0.362   1.409   1.013
  127PEN    H26 4562   0.605   1.609   0.340
  127PEN    C27 4563   0.504   1.721   0.206
  127PEN    C28 4564   0.364   1.860   0.058
  127PEN    H29 4565   0.200   1.417   1.175
  127PEN    C30 4566   0.603   1.720   0.102
  127PEN    C31 4567   0.460   1.855  -0.038
  127PEN    H32 4568   0.284   1.908   0.041
  127PEN    C33 4569   0.582   1.784  -0.015
  127PEN    H34 4570   0.684   1.673   0.116
  127PEN    H35 4571   0.446   1.900  -0.121
  127PEN    H36 4572   0.648   1.782  -0.083
  128PEN     C1 4573   0.294   2.429   0.626
  128PEN     C2 4574   0.196   2.430   0.728
  128PEN     C3 4575   0.418   2.356   0.650
  128PEN     C4 4576   0.277   2.497   0.505
  128PEN     C5 4577   0.215   2.364   0.848
  128PEN     H6 4578   0.114   2.476   0.714
  128PEN     C7 4579   0.436   2.289   0.772
  128PEN     C8 4580   0.516   2.356   0.549
  128PEN     C9 4581   0.375   2.497   0.405
  128PEN    H10 4582   0.196   2.544   0.492
  128PEN    C11 4583   0.117   2.365   0.952
  128PEN    C12 4584   0.338   2.291   0.871
  128PEN    H13 4585   0.516   2.240   0.787
  128PEN    H14 4586   0.597   2.308   0.562
  128PEN    C15 4587   0.499   2.424   0.428
  128PEN    C16 4588   0.358   2.564   0.282
  128PEN    C17 4589   0.138   2.301   1.069
  128PEN    H18 4590   0.035   2.412   0.938
  128PEN    C19 4591   0.355   2.225   0.996
  128PEN    C20 4592   0.597   2.423   0.326
  128PEN    C21 4593   0.455   2.562   0.183
  128PEN    H22 4594   0.277   2.613   0.267
  128PEN    C23 4595   0.260   2.230   1.092
  128PEN    H24 4596   0.071   2.303   1.137
  128PEN    H25 4597   0.436   2.177   1.013
  128PEN    H26 4598   0.679   2.376   0.340
  128PEN    C27 4599   0.578   2.489   0.206
  128PEN    C28 4600   0.438   2.628   0.058
  128PEN    H29 4601   0.274   2.185   1.175
  128PEN    C30 4602   0.676   2.488   0.102
  128PEN    C31 4603   0.533   2.623  -0.038
  128PEN    H32 4604   0.357   2.676   0.041
  128PEN    C33 4605   0.655   2.552  -0.015
  128PEN    H34 4606   0.758   2.441   0.116
  128PEN    H35 4607   0.520   2.668  -0.121
  128PEN    H36 4608   0.722   2.550  -0.083
   2.51012   3.07144   5.62273   0.00000   0.00000   0.29445   0.00000   0.20050   1.31073
