%VERSION  VERSION_STAMP = V0001.000  DATE = 05/17/26  21:02:44                  
%FLAG TITLE                                                                     
%FORMAT(20a4)                                                                   
default_name                                                                    
%FLAG POINTERS                                                                  
%FORMAT(10I8)                                                                   
    2080       9    1030     716    2060     398    1070     108       0       0
    5677     341     716     398     108       9      11       8      10       0
       0       0       0       0       0       0       0       1      40       0
       0
%FLAG ATOM_NAME                                                                 
%FORMAT(20a4)                                                                   
O1  O2  O3  O4  N1  N2  C1  C2  C3  C4  C5  C6  C7  C8  C9  C10 C11 C12 C13 C14 
C15 C16 C17 C18 C19 C20 C21 C22 C23 C24 H1  H2  H3  H4  H5  H6  H7  H8  H9  H10 
N1  C1  C2  H1  H2  H3  N1  C1  C2  H1  H2  H3  N1  C1  C2  H1  H2  H3  N1  C1  
C2  H1  H2  H3  N1  C1  C2  H1  H2  H3  N1  C1  C2  H1  H2  H3  N1  C1  C2  H1  
H2  H3  N1  C1  C2  H1  H2  H3  N1  C1  C2  H1  H2  H3  N1  C1  C2  H1  H2  H3  
N1  C1  C2  H1  H2  H3  N1  C1  C2  H1  H2  H3  N1  C1  C2  H1  H2  H3  N1  C1  
C2  H1  H2  H3  N1  C1  C2  H1  H2  H3  N1  C1  C2  H1  H2  H3  N1  C1  C2  H1  
H2  H3  N1  C1  C2  H1  H2  H3  N1  C1  C2  H1  H2  H3  N1  C1  C2  H1  H2  H3  
N1  C1  C2  H1  H2  H3  N1  C1  C2  H1  H2  H3  N1  C1  C2  H1  H2  H3  N1  C1  
C2  H1  H2  H3  N1  C1  C2  H1  H2  H3  N1  C1  C2  H1  H2  H3  N1  C1  C2  H1  
H2  H3  N1  C1  C2  H1  H2  H3  N1  C1  C2  H1  H2  H3  N1  C1  C2  H1  H2  H3  
N1  C1  C2  H1  H2  H3  N1  C1  C2  H1  H2  H3  N1  C1  C2  H1  H2  H3  N1  C1  
C2  H1  H2  H3  N1  C1  C2  H1  H2  H3  N1  C1  C2  H1  H2  H3  N1  C1  C2  H1  
H2  H3  N1  C1  C2  H1  H2  H3  N1  C1  C2  H1  H2  H3  N1  C1  C2  H1  H2  H3  
N1  C1  C2  H1  H2  H3  N1  C1  C2  H1  H2  H3  N1  C1  C2  H1  H2  H3  N1  C1  
C2  H1  H2  H3  N1  C1  C2  H1  H2  H3  N1  C1  C2  H1  H2  H3  N1  C1  C2  H1  
H2  H3  N1  C1  C2  H1  H2  H3  N1  C1  C2  H1  H2  H3  N1  C1  C2  H1  H2  H3  
N1  C1  C2  H1  H2  H3  N1  C1  C2  H1  H2  H3  N1  C1  C2  H1  H2  H3  N1  C1  
C2  H1  H2  H3  N1  C1  C2  H1  H2  H3  N1  C1  C2  H1  H2  H3  N1  C1  C2  H1  
H2  H3  N1  C1  C2  H1  H2  H3  N1  C1  C2  H1  H2  H3  N1  C1  C2  H1  H2  H3  
N1  C1  C2  H1  H2  H3  N1  C1  C2  H1  H2  H3  N1  C1  C2  H1  H2  H3  N1  C1  
C2  H1  H2  H3  N1  C1  C2  H1  H2  H3  N1  C1  C2  H1  H2  H3  N1  C1  C2  H1  
H2  H3  N1  C1  C2  H1  H2  H3  N1  C1  C2  H1  H2  H3  N1  C1  C2  H1  H2  H3  
N1  C1  C2  H1  H2  H3  N1  C1  C2  H1  H2  H3  N1  C1  C2  H1  H2  H3  N1  C1  
C2  H1  H2  H3  N1  C1  C2  H1  H2  H3  N1  C1  C2  H1  H2  H3  N1  C1  C2  H1  
H2  H3  N1  C1  C2  H1  H2  H3  N1  C1  C2  H1  H2  H3  N1  C1  C2  H1  H2  H3  
N1  C1  C2  H1  H2  H3  N1  C1  C2  H1  H2  H3  N1  C1  C2  H1  H2  H3  N1  C1  
C2  H1  H2  H3  N1  C1  C2  H1  H2  H3  N1  C1  C2  H1  H2  H3  N1  C1  C2  H1  
H2  H3  N1  C1  C2  H1  H2  H3  N1  C1  C2  H1  H2  H3  N1  C1  C2  H1  H2  H3  
N1  C1  C2  H1  H2  H3  N1  C1  C2  H1  H2  H3  N1  C1  C2  H1  H2  H3  N1  C1  
C2  H1  H2  H3  N1  C1  C2  H1  H2  H3  N1  C1  C2  H1  H2  H3  N1  C1  C2  H1  
H2  H3  N1  C1  C2  H1  H2  H3  N1  C1  C2  H1  H2  H3  N1  C1  C2  H1  H2  H3  
N1  C1  C2  H1  H2  H3  N1  C1  C2  H1  H2  H3  N1  C1  C2  H1  H2  H3  N1  C1  
C2  H1  H2  H3  N1  C1  C2  H1  H2  H3  N1  C1  C2  H1  H2  H3  N1  C1  C2  H1  
H2  H3  N1  C1  C2  H1  H2  H3  N1  C1  C2  H1  H2  H3  N1  C1  C2  H1  H2  H3  
N1  C1  C2  H1  H2  H3  N1  C1  C2  H1  H2  H3  N1  C1  C2  H1  H2  H3  N1  C1  
C2  H1  H2  H3  N1  C1  C2  H1  H2  H3  N1  C1  C2  H1  H2  H3  N1  C1  C2  H1  
H2  H3  N1  C1  C2  H1  H2  H3  N1  C1  C2  H1  H2  H3  N1  C1  C2  H1  H2  H3  
N1  C1  C2  H1  H2  H3  N1  C1  C2  H1  H2  H3  N1  C1  C2  H1  H2  H3  N1  C1  
C2  H1  H2  H3  N1  C1  C2  H1  H2  H3  N1  C1  C2  H1  H2  H3  N1  C1  C2  H1  
H2  H3  N1  C1  C2  H1  H2  H3  N1  C1  C2  H1  H2  H3  N1  C1  C2  H1  H2  H3  
N1  C1  C2  H1  H2  H3  N1  C1  C2  H1  H2  H3  N1  C1  C2  H1  H2  H3  N1  C1  
C2  H1  H2  H3  N1  C1  C2  H1  H2  H3  N1  C1  C2  H1  H2  H3  N1  C1  C2  H1  
H2  H3  N1  C1  C2  H1  H2  H3  N1  C1  C2  H1  H2  H3  N1  C1  C2  H1  H2  H3  
N1  C1  C2  H1  H2  H3  N1  C1  C2  H1  H2  H3  N1  C1  C2  H1  H2  H3  N1  C1  
C2  H1  H2  H3  N1  C1  C2  H1  H2  H3  N1  C1  C2  H1  H2  H3  N1  C1  C2  H1  
H2  H3  N1  C1  C2  H1  H2  H3  N1  C1  C2  H1  H2  H3  N1  C1  C2  H1  H2  H3  
N1  C1  C2  H1  H2  H3  N1  C1  C2  H1  H2  H3  N1  C1  C2  H1  H2  H3  N1  C1  
C2  H1  H2  H3  N1  C1  C2  H1  H2  H3  N1  C1  C2  H1  H2  H3  N1  C1  C2  H1  
H2  H3  N1  C1  C2  H1  H2  H3  N1  C1  C2  H1  H2  H3  N1  C1  C2  H1  H2  H3  
N1  C1  C2  H1  H2  H3  N1  C1  C2  H1  H2  H3  N1  C1  C2  H1  H2  H3  N1  C1  
C2  H1  H2  H3  N1  C1  C2  H1  H2  H3  N1  C1  C2  H1  H2  H3  N1  C1  C2  H1  
H2  H3  N1  C1  C2  H1  H2  H3  N1  C1  C2  H1  H2  H3  N1  C1  C2  H1  H2  H3  
N1  C1  C2  H1  H2  H3  N1  C1  C2  H1  H2  H3  N1  C1  C2  H1  H2  H3  N1  C1  
C2  H1  H2  H3  N1  C1  C2  H1  H2  H3  N1  C1  C2  H1  H2  H3  N1  C1  C2  H1  
H2  H3  N1  C1  C2  H1  H2  H3  N1  C1  C2  H1  H2  H3  N1  C1  C2  H1  H2  H3  
N1  C1  C2  H1  H2  H3  N1  C1  C2  H1  H2  H3  N1  C1  C2  H1  H2  H3  N1  C1  
C2  H1  H2  H3  N1  C1  C2  H1  H2  H3  N1  C1  C2  H1  H2  H3  N1  C1  C2  H1  
H2  H3  N1  C1  C2  H1  H2  H3  N1  C1  C2  H1  H2  H3  N1  C1  C2  H1  H2  H3  
N1  C1  C2  H1  H2  H3  N1  C1  C2  H1  H2  H3  N1  C1  C2  H1  H2  H3  N1  C1  
C2  H1  H2  H3  N1  C1  C2  H1  H2  H3  N1  C1  C2  H1  H2  H3  N1  C1  C2  H1  
H2  H3  N1  C1  C2  H1  H2  H3  N1  C1  C2  H1  H2  H3  N1  C1  C2  H1  H2  H3  
N1  C1  C2  H1  H2  H3  N1  C1  C2  H1  H2  H3  N1  C1  C2  H1  H2  H3  N1  C1  
C2  H1  H2  H3  N1  C1  C2  H1  H2  H3  N1  C1  C2  H1  H2  H3  N1  C1  C2  H1  
H2  H3  N1  C1  C2  H1  H2  H3  N1  C1  C2  H1  H2  H3  N1  C1  C2  H1  H2  H3  
N1  C1  C2  H1  H2  H3  N1  C1  C2  H1  H2  H3  N1  C1  C2  H1  H2  H3  N1  C1  
C2  H1  H2  H3  N1  C1  C2  H1  H2  H3  N1  C1  C2  H1  H2  H3  N1  C1  C2  H1  
H2  H3  N1  C1  C2  H1  H2  H3  N1  C1  C2  H1  H2  H3  N1  C1  C2  H1  H2  H3  
N1  C1  C2  H1  H2  H3  N1  C1  C2  H1  H2  H3  N1  C1  C2  H1  H2  H3  N1  C1  
C2  H1  H2  H3  N1  C1  C2  H1  H2  H3  N1  C1  C2  H1  H2  H3  N1  C1  C2  H1  
H2  H3  N1  C1  C2  H1  H2  H3  N1  C1  C2  H1  H2  H3  N1  C1  C2  H1  H2  H3  
N1  C1  C2  H1  H2  H3  N1  C1  C2  H1  H2  H3  N1  C1  C2  H1  H2  H3  N1  C1  
C2  H1  H2  H3  N1  C1  C2  H1  H2  H3  N1  C1  C2  H1  H2  H3  N1  C1  C2  H1  
H2  H3  N1  C1  C2  H1  H2  H3  N1  C1  C2  H1  H2  H3  N1  C1  C2  H1  H2  H3  
N1  C1  C2  H1  H2  H3  N1  C1  C2  H1  H2  H3  N1  C1  C2  H1  H2  H3  N1  C1  
C2  H1  H2  H3  N1  C1  C2  H1  H2  H3  N1  C1  C2  H1  H2  H3  N1  C1  C2  H1  
H2  H3  N1  C1  C2  H1  H2  H3  N1  C1  C2  H1  H2  H3  N1  C1  C2  H1  H2  H3  
N1  C1  C2  H1  H2  H3  N1  C1  C2  H1  H2  H3  N1  C1  C2  H1  H2  H3  N1  C1  
C2  H1  H2  H3  N1  C1  C2  H1  H2  H3  N1  C1  C2  H1  H2  H3  N1  C1  C2  H1  
H2  H3  N1  C1  C2  H1  H2  H3  N1  C1  C2  H1  H2  H3  N1  C1  C2  H1  H2  H3  
N1  C1  C2  H1  H2  H3  N1  C1  C2  H1  H2  H3  N1  C1  C2  H1  H2  H3  N1  C1  
C2  H1  H2  H3  N1  C1  C2  H1  H2  H3  N1  C1  C2  H1  H2  H3  N1  C1  C2  H1  
H2  H3  N1  C1  C2  H1  H2  H3  N1  C1  C2  H1  H2  H3  N1  C1  C2  H1  H2  H3  
N1  C1  C2  H1  H2  H3  N1  C1  C2  H1  H2  H3  N1  C1  C2  H1  H2  H3  N1  C1  
C2  H1  H2  H3  N1  C1  C2  H1  H2  H3  N1  C1  C2  H1  H2  H3  N1  C1  C2  H1  
H2  H3  N1  C1  C2  H1  H2  H3  N1  C1  C2  H1  H2  H3  N1  C1  C2  H1  H2  H3  
N1  C1  C2  H1  H2  H3  N1  C1  C2  H1  H2  H3  N1  C1  C2  H1  H2  H3  N1  C1  
C2  H1  H2  H3  N1  C1  C2  H1  H2  H3  N1  C1  C2  H1  H2  H3  N1  C1  C2  H1  
H2  H3  N1  C1  C2  H1  H2  H3  N1  C1  C2  H1  H2  H3  N1  C1  C2  H1  H2  H3  
N1  C1  C2  H1  H2  H3  N1  C1  C2  H1  H2  H3  N1  C1  C2  H1  H2  H3  N1  C1  
C2  H1  H2  H3  N1  C1  C2  H1  H2  H3  N1  C1  C2  H1  H2  H3  N1  C1  C2  H1  
H2  H3  N1  C1  C2  H1  H2  H3  N1  C1  C2  H1  H2  H3  N1  C1  C2  H1  H2  H3  
N1  C1  C2  H1  H2  H3  N1  C1  C2  H1  H2  H3  N1  C1  C2  H1  H2  H3  N1  C1  
C2  H1  H2  H3  N1  C1  C2  H1  H2  H3  N1  C1  C2  H1  H2  H3  N1  C1  C2  H1  
H2  H3  N1  C1  C2  H1  H2  H3  N1  C1  C2  H1  H2  H3  N1  C1  C2  H1  H2  H3  
N1  C1  C2  H1  H2  H3  N1  C1  C2  H1  H2  H3  N1  C1  C2  H1  H2  H3  N1  C1  
C2  H1  H2  H3  N1  C1  C2  H1  H2  H3  N1  C1  C2  H1  H2  H3  N1  C1  C2  H1  
H2  H3  N1  C1  C2  H1  H2  H3  N1  C1  C2  H1  H2  H3  N1  C1  C2  H1  H2  H3  
N1  C1  C2  H1  H2  H3  N1  C1  C2  H1  H2  H3  N1  C1  C2  H1  H2  H3  N1  C1  
C2  H1  H2  H3  N1  C1  C2  H1  H2  H3  N1  C1  C2  H1  H2  H3  N1  C1  C2  H1  
H2  H3  N1  C1  C2  H1  H2  H3  N1  C1  C2  H1  H2  H3  N1  C1  C2  H1  H2  H3  
N1  C1  C2  H1  H2  H3  N1  C1  C2  H1  H2  H3  N1  C1  C2  H1  H2  H3  N1  C1  
C2  H1  H2  H3  N1  C1  C2  H1  H2  H3  N1  C1  C2  H1  H2  H3  N1  C1  C2  H1  
H2  H3  N1  C1  C2  H1  H2  H3  N1  C1  C2  H1  H2  H3  N1  C1  C2  H1  H2  H3  
%FLAG CHARGE                                                                    
%FORMAT(5E16.8)                                                                 
 -1.10153804E+01 -1.10153804E+01 -1.10153804E+01 -1.10153804E+01 -1.07056013E+01
 -1.07056013E+01 -5.83113600E-01 -5.83113600E-01  1.82223000E-01  1.82223000E-01
  1.82223000E-01  1.82223000E-01  3.28001400E-01  3.28001400E-01 -2.61672228E+00
 -2.61672228E+00 -2.61672228E+00 -2.61672228E+00 -2.33245440E+00 -2.33245440E+00
 -2.33245440E+00 -2.33245440E+00 -7.47114300E-01 -7.47114300E-01 -7.47114300E-01
 -7.47114300E-01  1.31036559E+01  1.31036559E+01  1.31036559E+01  1.31036559E+01
  2.67867810E+00  2.67867810E+00  2.67867810E+00  2.67867810E+00  3.09779100E+00
  3.09779100E+00  3.09779100E+00  3.09779100E+00  6.29580465E+00  6.29580465E+00
 -6.84794034E+00 -8.20003500E-01  3.80299401E+00  1.28831661E+00  1.28831661E+00
  1.28831661E+00 -6.84794034E+00 -8.20003500E-01  3.80299401E+00  1.28831661E+00
  1.28831661E+00  1.28831661E+00 -6.84794034E+00 -8.20003500E-01  3.80299401E+00
  1.28831661E+00  1.28831661E+00  1.28831661E+00 -6.84794034E+00 -8.20003500E-01
  3.80299401E+00  1.28831661E+00  1.28831661E+00  1.28831661E+00 -6.84794034E+00
 -8.20003500E-01  3.80299401E+00  1.28831661E+00  1.28831661E+00  1.28831661E+00
 -6.84794034E+00 -8.20003500E-01  3.80299401E+00  1.28831661E+00  1.28831661E+00
  1.28831661E+00 -6.84794034E+00 -8.20003500E-01  3.80299401E+00  1.28831661E+00
  1.28831661E+00  1.28831661E+00 -6.84794034E+00 -8.20003500E-01  3.80299401E+00
  1.28831661E+00  1.28831661E+00  1.28831661E+00 -6.84794034E+00 -8.20003500E-01
  3.80299401E+00  1.28831661E+00  1.28831661E+00  1.28831661E+00 -6.84794034E+00
 -8.20003500E-01  3.80299401E+00  1.28831661E+00  1.28831661E+00  1.28831661E+00
 -6.84794034E+00 -8.20003500E-01  3.80299401E+00  1.28831661E+00  1.28831661E+00
  1.28831661E+00 -6.84794034E+00 -8.20003500E-01  3.80299401E+00  1.28831661E+00
  1.28831661E+00  1.28831661E+00 -6.84794034E+00 -8.20003500E-01  3.80299401E+00
  1.28831661E+00  1.28831661E+00  1.28831661E+00 -6.84794034E+00 -8.20003500E-01
  3.80299401E+00  1.28831661E+00  1.28831661E+00  1.28831661E+00 -6.84794034E+00
 -8.20003500E-01  3.80299401E+00  1.28831661E+00  1.28831661E+00  1.28831661E+00
 -6.84794034E+00 -8.20003500E-01  3.80299401E+00  1.28831661E+00  1.28831661E+00
  1.28831661E+00 -6.84794034E+00 -8.20003500E-01  3.80299401E+00  1.28831661E+00
  1.28831661E+00  1.28831661E+00 -6.84794034E+00 -8.20003500E-01  3.80299401E+00
  1.28831661E+00  1.28831661E+00  1.28831661E+00 -6.84794034E+00 -8.20003500E-01
  3.80299401E+00  1.28831661E+00  1.28831661E+00  1.28831661E+00 -6.84794034E+00
 -8.20003500E-01  3.80299401E+00  1.28831661E+00  1.28831661E+00  1.28831661E+00
 -6.84794034E+00 -8.20003500E-01  3.80299401E+00  1.28831661E+00  1.28831661E+00
  1.28831661E+00 -6.84794034E+00 -8.20003500E-01  3.80299401E+00  1.28831661E+00
  1.28831661E+00  1.28831661E+00 -6.84794034E+00 -8.20003500E-01  3.80299401E+00
  1.28831661E+00  1.28831661E+00  1.28831661E+00 -6.84794034E+00 -8.20003500E-01
  3.80299401E+00  1.28831661E+00  1.28831661E+00  1.28831661E+00 -6.84794034E+00
 -8.20003500E-01  3.80299401E+00  1.28831661E+00  1.28831661E+00  1.28831661E+00
 -6.84794034E+00 -8.20003500E-01  3.80299401E+00  1.28831661E+00  1.28831661E+00
  1.28831661E+00 -6.84794034E+00 -8.20003500E-01  3.80299401E+00  1.28831661E+00
  1.28831661E+00  1.28831661E+00 -6.84794034E+00 -8.20003500E-01  3.80299401E+00
  1.28831661E+00  1.28831661E+00  1.28831661E+00 -6.84794034E+00 -8.20003500E-01
  3.80299401E+00  1.28831661E+00  1.28831661E+00  1.28831661E+00 -6.84794034E+00
 -8.20003500E-01  3.80299401E+00  1.28831661E+00  1.28831661E+00  1.28831661E+00
 -6.84794034E+00 -8.20003500E-01  3.80299401E+00  1.28831661E+00  1.28831661E+00
  1.28831661E+00 -6.84794034E+00 -8.20003500E-01  3.80299401E+00  1.28831661E+00
  1.28831661E+00  1.28831661E+00 -6.84794034E+00 -8.20003500E-01  3.80299401E+00
  1.28831661E+00  1.28831661E+00  1.28831661E+00 -6.84794034E+00 -8.20003500E-01
  3.80299401E+00  1.28831661E+00  1.28831661E+00  1.28831661E+00 -6.84794034E+00
 -8.20003500E-01  3.80299401E+00  1.28831661E+00  1.28831661E+00  1.28831661E+00
 -6.84794034E+00 -8.20003500E-01  3.80299401E+00  1.28831661E+00  1.28831661E+00
  1.28831661E+00 -6.84794034E+00 -8.20003500E-01  3.80299401E+00  1.28831661E+00
  1.28831661E+00  1.28831661E+00 -6.84794034E+00 -8.20003500E-01  3.80299401E+00
  1.28831661E+00  1.28831661E+00  1.28831661E+00 -6.84794034E+00 -8.20003500E-01
  3.80299401E+00  1.28831661E+00  1.28831661E+00  1.28831661E+00 -6.84794034E+00
 -8.20003500E-01  3.80299401E+00  1.28831661E+00  1.28831661E+00  1.28831661E+00
 -6.84794034E+00 -8.20003500E-01  3.80299401E+00  1.28831661E+00  1.28831661E+00
  1.28831661E+00 -6.84794034E+00 -8.20003500E-01  3.80299401E+00  1.28831661E+00
  1.28831661E+00  1.28831661E+00 -6.84794034E+00 -8.20003500E-01  3.80299401E+00
  1.28831661E+00  1.28831661E+00  1.28831661E+00 -6.84794034E+00 -8.20003500E-01
  3.80299401E+00  1.28831661E+00  1.28831661E+00  1.28831661E+00 -6.84794034E+00
 -8.20003500E-01  3.80299401E+00  1.28831661E+00  1.28831661E+00  1.28831661E+00
 -6.84794034E+00 -8.20003500E-01  3.80299401E+00  1.28831661E+00  1.28831661E+00
  1.28831661E+00 -6.84794034E+00 -8.20003500E-01  3.80299401E+00  1.28831661E+00
  1.28831661E+00  1.28831661E+00 -6.84794034E+00 -8.20003500E-01  3.80299401E+00
  1.28831661E+00  1.28831661E+00  1.28831661E+00 -6.84794034E+00 -8.20003500E-01
  3.80299401E+00  1.28831661E+00  1.28831661E+00  1.28831661E+00 -6.84794034E+00
 -8.20003500E-01  3.80299401E+00  1.28831661E+00  1.28831661E+00  1.28831661E+00
 -6.84794034E+00 -8.20003500E-01  3.80299401E+00  1.28831661E+00  1.28831661E+00
  1.28831661E+00 -6.84794034E+00 -8.20003500E-01  3.80299401E+00  1.28831661E+00
  1.28831661E+00  1.28831661E+00 -6.84794034E+00 -8.20003500E-01  3.80299401E+00
  1.28831661E+00  1.28831661E+00  1.28831661E+00 -6.84794034E+00 -8.20003500E-01
  3.80299401E+00  1.28831661E+00  1.28831661E+00  1.28831661E+00 -6.84794034E+00
 -8.20003500E-01  3.80299401E+00  1.28831661E+00  1.28831661E+00  1.28831661E+00
 -6.84794034E+00 -8.20003500E-01  3.80299401E+00  1.28831661E+00  1.28831661E+00
  1.28831661E+00 -6.84794034E+00 -8.20003500E-01  3.80299401E+00  1.28831661E+00
  1.28831661E+00  1.28831661E+00 -6.84794034E+00 -8.20003500E-01  3.80299401E+00
  1.28831661E+00  1.28831661E+00  1.28831661E+00 -6.84794034E+00 -8.20003500E-01
  3.80299401E+00  1.28831661E+00  1.28831661E+00  1.28831661E+00 -6.84794034E+00
 -8.20003500E-01  3.80299401E+00  1.28831661E+00  1.28831661E+00  1.28831661E+00
 -6.84794034E+00 -8.20003500E-01  3.80299401E+00  1.28831661E+00  1.28831661E+00
  1.28831661E+00 -6.84794034E+00 -8.20003500E-01  3.80299401E+00  1.28831661E+00
  1.28831661E+00  1.28831661E+00 -6.84794034E+00 -8.20003500E-01  3.80299401E+00
  1.28831661E+00  1.28831661E+00  1.28831661E+00 -6.84794034E+00 -8.20003500E-01
  3.80299401E+00  1.28831661E+00  1.28831661E+00  1.28831661E+00 -6.84794034E+00
 -8.20003500E-01  3.80299401E+00  1.28831661E+00  1.28831661E+00  1.28831661E+00
 -6.84794034E+00 -8.20003500E-01  3.80299401E+00  1.28831661E+00  1.28831661E+00
  1.28831661E+00 -6.84794034E+00 -8.20003500E-01  3.80299401E+00  1.28831661E+00
  1.28831661E+00  1.28831661E+00 -6.84794034E+00 -8.20003500E-01  3.80299401E+00
  1.28831661E+00  1.28831661E+00  1.28831661E+00 -6.84794034E+00 -8.20003500E-01
  3.80299401E+00  1.28831661E+00  1.28831661E+00  1.28831661E+00 -6.84794034E+00
 -8.20003500E-01  3.80299401E+00  1.28831661E+00  1.28831661E+00  1.28831661E+00
 -6.84794034E+00 -8.20003500E-01  3.80299401E+00  1.28831661E+00  1.28831661E+00
  1.28831661E+00 -6.84794034E+00 -8.20003500E-01  3.80299401E+00  1.28831661E+00
  1.28831661E+00  1.28831661E+00 -6.84794034E+00 -8.20003500E-01  3.80299401E+00
  1.28831661E+00  1.28831661E+00  1.28831661E+00 -6.84794034E+00 -8.20003500E-01
  3.80299401E+00  1.28831661E+00  1.28831661E+00  1.28831661E+00 -6.84794034E+00
 -8.20003500E-01  3.80299401E+00  1.28831661E+00  1.28831661E+00  1.28831661E+00
 -6.84794034E+00 -8.20003500E-01  3.80299401E+00  1.28831661E+00  1.28831661E+00
  1.28831661E+00 -6.84794034E+00 -8.20003500E-01  3.80299401E+00  1.28831661E+00
  1.28831661E+00  1.28831661E+00 -6.84794034E+00 -8.20003500E-01  3.80299401E+00
  1.28831661E+00  1.28831661E+00  1.28831661E+00 -6.84794034E+00 -8.20003500E-01
  3.80299401E+00  1.28831661E+00  1.28831661E+00  1.28831661E+00 -6.84794034E+00
 -8.20003500E-01  3.80299401E+00  1.28831661E+00  1.28831661E+00  1.28831661E+00
 -6.84794034E+00 -8.20003500E-01  3.80299401E+00  1.28831661E+00  1.28831661E+00
  1.28831661E+00 -6.84794034E+00 -8.20003500E-01  3.80299401E+00  1.28831661E+00
  1.28831661E+00  1.28831661E+00 -6.84794034E+00 -8.20003500E-01  3.80299401E+00
  1.28831661E+00  1.28831661E+00  1.28831661E+00 -6.84794034E+00 -8.20003500E-01
  3.80299401E+00  1.28831661E+00  1.28831661E+00  1.28831661E+00 -6.84794034E+00
 -8.20003500E-01  3.80299401E+00  1.28831661E+00  1.28831661E+00  1.28831661E+00
 -6.84794034E+00 -8.20003500E-01  3.80299401E+00  1.28831661E+00  1.28831661E+00
  1.28831661E+00 -6.84794034E+00 -8.20003500E-01  3.80299401E+00  1.28831661E+00
  1.28831661E+00  1.28831661E+00 -6.84794034E+00 -8.20003500E-01  3.80299401E+00
  1.28831661E+00  1.28831661E+00  1.28831661E+00 -6.84794034E+00 -8.20003500E-01
  3.80299401E+00  1.28831661E+00  1.28831661E+00  1.28831661E+00 -6.84794034E+00
 -8.20003500E-01  3.80299401E+00  1.28831661E+00  1.28831661E+00  1.28831661E+00
 -6.84794034E+00 -8.20003500E-01  3.80299401E+00  1.28831661E+00  1.28831661E+00
  1.28831661E+00 -6.84794034E+00 -8.20003500E-01  3.80299401E+00  1.28831661E+00
  1.28831661E+00  1.28831661E+00 -6.84794034E+00 -8.20003500E-01  3.80299401E+00
  1.28831661E+00  1.28831661E+00  1.28831661E+00 -6.84794034E+00 -8.20003500E-01
  3.80299401E+00  1.28831661E+00  1.28831661E+00  1.28831661E+00 -6.84794034E+00
 -8.20003500E-01  3.80299401E+00  1.28831661E+00  1.28831661E+00  1.28831661E+00
 -6.84794034E+00 -8.20003500E-01  3.80299401E+00  1.28831661E+00  1.28831661E+00
  1.28831661E+00 -6.84794034E+00 -8.20003500E-01  3.80299401E+00  1.28831661E+00
  1.28831661E+00  1.28831661E+00 -6.84794034E+00 -8.20003500E-01  3.80299401E+00
  1.28831661E+00  1.28831661E+00  1.28831661E+00 -6.84794034E+00 -8.20003500E-01
  3.80299401E+00  1.28831661E+00  1.28831661E+00  1.28831661E+00 -6.84794034E+00
 -8.20003500E-01  3.80299401E+00  1.28831661E+00  1.28831661E+00  1.28831661E+00
 -6.84794034E+00 -8.20003500E-01  3.80299401E+00  1.28831661E+00  1.28831661E+00
  1.28831661E+00 -6.84794034E+00 -8.20003500E-01  3.80299401E+00  1.28831661E+00
  1.28831661E+00  1.28831661E+00 -6.84794034E+00 -8.20003500E-01  3.80299401E+00
  1.28831661E+00  1.28831661E+00  1.28831661E+00 -6.84794034E+00 -8.20003500E-01
  3.80299401E+00  1.28831661E+00  1.28831661E+00  1.28831661E+00 -6.84794034E+00
 -8.20003500E-01  3.80299401E+00  1.28831661E+00  1.28831661E+00  1.28831661E+00
 -6.84794034E+00 -8.20003500E-01  3.80299401E+00  1.28831661E+00  1.28831661E+00
  1.28831661E+00 -6.84794034E+00 -8.20003500E-01  3.80299401E+00  1.28831661E+00
  1.28831661E+00  1.28831661E+00 -6.84794034E+00 -8.20003500E-01  3.80299401E+00
  1.28831661E+00  1.28831661E+00  1.28831661E+00 -6.84794034E+00 -8.20003500E-01
  3.80299401E+00  1.28831661E+00  1.28831661E+00  1.28831661E+00 -6.84794034E+00
 -8.20003500E-01  3.80299401E+00  1.28831661E+00  1.28831661E+00  1.28831661E+00
 -6.84794034E+00 -8.20003500E-01  3.80299401E+00  1.28831661E+00  1.28831661E+00
  1.28831661E+00 -6.84794034E+00 -8.20003500E-01  3.80299401E+00  1.28831661E+00
  1.28831661E+00  1.28831661E+00 -6.84794034E+00 -8.20003500E-01  3.80299401E+00
  1.28831661E+00  1.28831661E+00  1.28831661E+00 -6.84794034E+00 -8.20003500E-01
  3.80299401E+00  1.28831661E+00  1.28831661E+00  1.28831661E+00 -6.84794034E+00
 -8.20003500E-01  3.80299401E+00  1.28831661E+00  1.28831661E+00  1.28831661E+00
 -6.84794034E+00 -8.20003500E-01  3.80299401E+00  1.28831661E+00  1.28831661E+00
  1.28831661E+00 -6.84794034E+00 -8.20003500E-01  3.80299401E+00  1.28831661E+00
  1.28831661E+00  1.28831661E+00 -6.84794034E+00 -8.20003500E-01  3.80299401E+00
  1.28831661E+00  1.28831661E+00  1.28831661E+00 -6.84794034E+00 -8.20003500E-01
  3.80299401E+00  1.28831661E+00  1.28831661E+00  1.28831661E+00 -6.84794034E+00
 -8.20003500E-01  3.80299401E+00  1.28831661E+00  1.28831661E+00  1.28831661E+00
 -6.84794034E+00 -8.20003500E-01  3.80299401E+00  1.28831661E+00  1.28831661E+00
  1.28831661E+00 -6.84794034E+00 -8.20003500E-01  3.80299401E+00  1.28831661E+00
  1.28831661E+00  1.28831661E+00 -6.84794034E+00 -8.20003500E-01  3.80299401E+00
  1.28831661E+00  1.28831661E+00  1.28831661E+00 -6.84794034E+00 -8.20003500E-01
  3.80299401E+00  1.28831661E+00  1.28831661E+00  1.28831661E+00 -6.84794034E+00
 -8.20003500E-01  3.80299401E+00  1.28831661E+00  1.28831661E+00  1.28831661E+00
 -6.84794034E+00 -8.20003500E-01  3.80299401E+00  1.28831661E+00  1.28831661E+00
  1.28831661E+00 -6.84794034E+00 -8.20003500E-01  3.80299401E+00  1.28831661E+00
  1.28831661E+00  1.28831661E+00 -6.84794034E+00 -8.20003500E-01  3.80299401E+00
  1.28831661E+00  1.28831661E+00  1.28831661E+00 -6.84794034E+00 -8.20003500E-01
  3.80299401E+00  1.28831661E+00  1.28831661E+00  1.28831661E+00 -6.84794034E+00
 -8.20003500E-01  3.80299401E+00  1.28831661E+00  1.28831661E+00  1.28831661E+00
 -6.84794034E+00 -8.20003500E-01  3.80299401E+00  1.28831661E+00  1.28831661E+00
  1.28831661E+00 -6.84794034E+00 -8.20003500E-01  3.80299401E+00  1.28831661E+00
  1.28831661E+00  1.28831661E+00 -6.84794034E+00 -8.20003500E-01  3.80299401E+00
  1.28831661E+00  1.28831661E+00  1.28831661E+00 -6.84794034E+00 -8.20003500E-01
  3.80299401E+00  1.28831661E+00  1.28831661E+00  1.28831661E+00 -6.84794034E+00
 -8.20003500E-01  3.80299401E+00  1.28831661E+00  1.28831661E+00  1.28831661E+00
 -6.84794034E+00 -8.20003500E-01  3.80299401E+00  1.28831661E+00  1.28831661E+00
  1.28831661E+00 -6.84794034E+00 -8.20003500E-01  3.80299401E+00  1.28831661E+00
  1.28831661E+00  1.28831661E+00 -6.84794034E+00 -8.20003500E-01  3.80299401E+00
  1.28831661E+00  1.28831661E+00  1.28831661E+00 -6.84794034E+00 -8.20003500E-01
  3.80299401E+00  1.28831661E+00  1.28831661E+00  1.28831661E+00 -6.84794034E+00
 -8.20003500E-01  3.80299401E+00  1.28831661E+00  1.28831661E+00  1.28831661E+00
 -6.84794034E+00 -8.20003500E-01  3.80299401E+00  1.28831661E+00  1.28831661E+00
  1.28831661E+00 -6.84794034E+00 -8.20003500E-01  3.80299401E+00  1.28831661E+00
  1.28831661E+00  1.28831661E+00 -6.84794034E+00 -8.20003500E-01  3.80299401E+00
  1.28831661E+00  1.28831661E+00  1.28831661E+00 -6.84794034E+00 -8.20003500E-01
  3.80299401E+00  1.28831661E+00  1.28831661E+00  1.28831661E+00 -6.84794034E+00
 -8.20003500E-01  3.80299401E+00  1.28831661E+00  1.28831661E+00  1.28831661E+00
 -6.84794034E+00 -8.20003500E-01  3.80299401E+00  1.28831661E+00  1.28831661E+00
  1.28831661E+00 -6.84794034E+00 -8.20003500E-01  3.80299401E+00  1.28831661E+00
  1.28831661E+00  1.28831661E+00 -6.84794034E+00 -8.20003500E-01  3.80299401E+00
  1.28831661E+00  1.28831661E+00  1.28831661E+00 -6.84794034E+00 -8.20003500E-01
  3.80299401E+00  1.28831661E+00  1.28831661E+00  1.28831661E+00 -6.84794034E+00
 -8.20003500E-01  3.80299401E+00  1.28831661E+00  1.28831661E+00  1.28831661E+00
 -6.84794034E+00 -8.20003500E-01  3.80299401E+00  1.28831661E+00  1.28831661E+00
  1.28831661E+00 -6.84794034E+00 -8.20003500E-01  3.80299401E+00  1.28831661E+00
  1.28831661E+00  1.28831661E+00 -6.84794034E+00 -8.20003500E-01  3.80299401E+00
  1.28831661E+00  1.28831661E+00  1.28831661E+00 -6.84794034E+00 -8.20003500E-01
  3.80299401E+00  1.28831661E+00  1.28831661E+00  1.28831661E+00 -6.84794034E+00
 -8.20003500E-01  3.80299401E+00  1.28831661E+00  1.28831661E+00  1.28831661E+00
 -6.84794034E+00 -8.20003500E-01  3.80299401E+00  1.28831661E+00  1.28831661E+00
  1.28831661E+00 -6.84794034E+00 -8.20003500E-01  3.80299401E+00  1.28831661E+00
  1.28831661E+00  1.28831661E+00 -6.84794034E+00 -8.20003500E-01  3.80299401E+00
  1.28831661E+00  1.28831661E+00  1.28831661E+00 -6.84794034E+00 -8.20003500E-01
  3.80299401E+00  1.28831661E+00  1.28831661E+00  1.28831661E+00 -6.84794034E+00
 -8.20003500E-01  3.80299401E+00  1.28831661E+00  1.28831661E+00  1.28831661E+00
 -6.84794034E+00 -8.20003500E-01  3.80299401E+00  1.28831661E+00  1.28831661E+00
  1.28831661E+00 -6.84794034E+00 -8.20003500E-01  3.80299401E+00  1.28831661E+00
  1.28831661E+00  1.28831661E+00 -6.84794034E+00 -8.20003500E-01  3.80299401E+00
  1.28831661E+00  1.28831661E+00  1.28831661E+00 -6.84794034E+00 -8.20003500E-01
  3.80299401E+00  1.28831661E+00  1.28831661E+00  1.28831661E+00 -6.84794034E+00
 -8.20003500E-01  3.80299401E+00  1.28831661E+00  1.28831661E+00  1.28831661E+00
 -6.84794034E+00 -8.20003500E-01  3.80299401E+00  1.28831661E+00  1.28831661E+00
  1.28831661E+00 -6.84794034E+00 -8.20003500E-01  3.80299401E+00  1.28831661E+00
  1.28831661E+00  1.28831661E+00 -6.84794034E+00 -8.20003500E-01  3.80299401E+00
  1.28831661E+00  1.28831661E+00  1.28831661E+00 -6.84794034E+00 -8.20003500E-01
  3.80299401E+00  1.28831661E+00  1.28831661E+00  1.28831661E+00 -6.84794034E+00
 -8.20003500E-01  3.80299401E+00  1.28831661E+00  1.28831661E+00  1.28831661E+00
 -6.84794034E+00 -8.20003500E-01  3.80299401E+00  1.28831661E+00  1.28831661E+00
  1.28831661E+00 -6.84794034E+00 -8.20003500E-01  3.80299401E+00  1.28831661E+00
  1.28831661E+00  1.28831661E+00 -6.84794034E+00 -8.20003500E-01  3.80299401E+00
  1.28831661E+00  1.28831661E+00  1.28831661E+00 -6.84794034E+00 -8.20003500E-01
  3.80299401E+00  1.28831661E+00  1.28831661E+00  1.28831661E+00 -6.84794034E+00
 -8.20003500E-01  3.80299401E+00  1.28831661E+00  1.28831661E+00  1.28831661E+00
 -6.84794034E+00 -8.20003500E-01  3.80299401E+00  1.28831661E+00  1.28831661E+00
  1.28831661E+00 -6.84794034E+00 -8.20003500E-01  3.80299401E+00  1.28831661E+00
  1.28831661E+00  1.28831661E+00 -6.84794034E+00 -8.20003500E-01  3.80299401E+00
  1.28831661E+00  1.28831661E+00  1.28831661E+00 -6.84794034E+00 -8.20003500E-01
  3.80299401E+00  1.28831661E+00  1.28831661E+00  1.28831661E+00 -6.84794034E+00
 -8.20003500E-01  3.80299401E+00  1.28831661E+00  1.28831661E+00  1.28831661E+00
 -6.84794034E+00 -8.20003500E-01  3.80299401E+00  1.28831661E+00  1.28831661E+00
  1.28831661E+00 -6.84794034E+00 -8.20003500E-01  3.80299401E+00  1.28831661E+00
  1.28831661E+00  1.28831661E+00 -6.84794034E+00 -8.20003500E-01  3.80299401E+00
  1.28831661E+00  1.28831661E+00  1.28831661E+00 -6.84794034E+00 -8.20003500E-01
  3.80299401E+00  1.28831661E+00  1.28831661E+00  1.28831661E+00 -6.84794034E+00
 -8.20003500E-01  3.80299401E+00  1.28831661E+00  1.28831661E+00  1.28831661E+00
 -6.84794034E+00 -8.20003500E-01  3.80299401E+00  1.28831661E+00  1.28831661E+00
  1.28831661E+00 -6.84794034E+00 -8.20003500E-01  3.80299401E+00  1.28831661E+00
  1.28831661E+00  1.28831661E+00 -6.84794034E+00 -8.20003500E-01  3.80299401E+00
  1.28831661E+00  1.28831661E+00  1.28831661E+00 -6.84794034E+00 -8.20003500E-01
  3.80299401E+00  1.28831661E+00  1.28831661E+00  1.28831661E+00 -6.84794034E+00
 -8.20003500E-01  3.80299401E+00  1.28831661E+00  1.28831661E+00  1.28831661E+00
 -6.84794034E+00 -8.20003500E-01  3.80299401E+00  1.28831661E+00  1.28831661E+00
  1.28831661E+00 -6.84794034E+00 -8.20003500E-01  3.80299401E+00  1.28831661E+00
  1.28831661E+00  1.28831661E+00 -6.84794034E+00 -8.20003500E-01  3.80299401E+00
  1.28831661E+00  1.28831661E+00  1.28831661E+00 -6.84794034E+00 -8.20003500E-01
  3.80299401E+00  1.28831661E+00  1.28831661E+00  1.28831661E+00 -6.84794034E+00
 -8.20003500E-01  3.80299401E+00  1.28831661E+00  1.28831661E+00  1.28831661E+00
 -6.84794034E+00 -8.20003500E-01  3.80299401E+00  1.28831661E+00  1.28831661E+00
  1.28831661E+00 -6.84794034E+00 -8.20003500E-01  3.80299401E+00  1.28831661E+00
  1.28831661E+00  1.28831661E+00 -6.84794034E+00 -8.20003500E-01  3.80299401E+00
  1.28831661E+00  1.28831661E+00  1.28831661E+00 -6.84794034E+00 -8.20003500E-01
  3.80299401E+00  1.28831661E+00  1.28831661E+00  1.28831661E+00 -6.84794034E+00
 -8.20003500E-01  3.80299401E+00  1.28831661E+00  1.28831661E+00  1.28831661E+00
 -6.84794034E+00 -8.20003500E-01  3.80299401E+00  1.28831661E+00  1.28831661E+00
  1.28831661E+00 -6.84794034E+00 -8.20003500E-01  3.80299401E+00  1.28831661E+00
  1.28831661E+00  1.28831661E+00 -6.84794034E+00 -8.20003500E-01  3.80299401E+00
  1.28831661E+00  1.28831661E+00  1.28831661E+00 -6.84794034E+00 -8.20003500E-01
  3.80299401E+00  1.28831661E+00  1.28831661E+00  1.28831661E+00 -6.84794034E+00
 -8.20003500E-01  3.80299401E+00  1.28831661E+00  1.28831661E+00  1.28831661E+00
 -6.84794034E+00 -8.20003500E-01  3.80299401E+00  1.28831661E+00  1.28831661E+00
  1.28831661E+00 -6.84794034E+00 -8.20003500E-01  3.80299401E+00  1.28831661E+00
  1.28831661E+00  1.28831661E+00 -6.84794034E+00 -8.20003500E-01  3.80299401E+00
  1.28831661E+00  1.28831661E+00  1.28831661E+00 -6.84794034E+00 -8.20003500E-01
  3.80299401E+00  1.28831661E+00  1.28831661E+00  1.28831661E+00 -6.84794034E+00
 -8.20003500E-01  3.80299401E+00  1.28831661E+00  1.28831661E+00  1.28831661E+00
 -6.84794034E+00 -8.20003500E-01  3.80299401E+00  1.28831661E+00  1.28831661E+00
  1.28831661E+00 -6.84794034E+00 -8.20003500E-01  3.80299401E+00  1.28831661E+00
  1.28831661E+00  1.28831661E+00 -6.84794034E+00 -8.20003500E-01  3.80299401E+00
  1.28831661E+00  1.28831661E+00  1.28831661E+00 -6.84794034E+00 -8.20003500E-01
  3.80299401E+00  1.28831661E+00  1.28831661E+00  1.28831661E+00 -6.84794034E+00
 -8.20003500E-01  3.80299401E+00  1.28831661E+00  1.28831661E+00  1.28831661E+00
 -6.84794034E+00 -8.20003500E-01  3.80299401E+00  1.28831661E+00  1.28831661E+00
  1.28831661E+00 -6.84794034E+00 -8.20003500E-01  3.80299401E+00  1.28831661E+00
  1.28831661E+00  1.28831661E+00 -6.84794034E+00 -8.20003500E-01  3.80299401E+00
  1.28831661E+00  1.28831661E+00  1.28831661E+00 -6.84794034E+00 -8.20003500E-01
  3.80299401E+00  1.28831661E+00  1.28831661E+00  1.28831661E+00 -6.84794034E+00
 -8.20003500E-01  3.80299401E+00  1.28831661E+00  1.28831661E+00  1.28831661E+00
 -6.84794034E+00 -8.20003500E-01  3.80299401E+00  1.28831661E+00  1.28831661E+00
  1.28831661E+00 -6.84794034E+00 -8.20003500E-01  3.80299401E+00  1.28831661E+00
  1.28831661E+00  1.28831661E+00 -6.84794034E+00 -8.20003500E-01  3.80299401E+00
  1.28831661E+00  1.28831661E+00  1.28831661E+00 -6.84794034E+00 -8.20003500E-01
  3.80299401E+00  1.28831661E+00  1.28831661E+00  1.28831661E+00 -6.84794034E+00
 -8.20003500E-01  3.80299401E+00  1.28831661E+00  1.28831661E+00  1.28831661E+00
 -6.84794034E+00 -8.20003500E-01  3.80299401E+00  1.28831661E+00  1.28831661E+00
  1.28831661E+00 -6.84794034E+00 -8.20003500E-01  3.80299401E+00  1.28831661E+00
  1.28831661E+00  1.28831661E+00 -6.84794034E+00 -8.20003500E-01  3.80299401E+00
  1.28831661E+00  1.28831661E+00  1.28831661E+00 -6.84794034E+00 -8.20003500E-01
  3.80299401E+00  1.28831661E+00  1.28831661E+00  1.28831661E+00 -6.84794034E+00
 -8.20003500E-01  3.80299401E+00  1.28831661E+00  1.28831661E+00  1.28831661E+00
 -6.84794034E+00 -8.20003500E-01  3.80299401E+00  1.28831661E+00  1.28831661E+00
  1.28831661E+00 -6.84794034E+00 -8.20003500E-01  3.80299401E+00  1.28831661E+00
  1.28831661E+00  1.28831661E+00 -6.84794034E+00 -8.20003500E-01  3.80299401E+00
  1.28831661E+00  1.28831661E+00  1.28831661E+00 -6.84794034E+00 -8.20003500E-01
  3.80299401E+00  1.28831661E+00  1.28831661E+00  1.28831661E+00 -6.84794034E+00
 -8.20003500E-01  3.80299401E+00  1.28831661E+00  1.28831661E+00  1.28831661E+00
 -6.84794034E+00 -8.20003500E-01  3.80299401E+00  1.28831661E+00  1.28831661E+00
  1.28831661E+00 -6.84794034E+00 -8.20003500E-01  3.80299401E+00  1.28831661E+00
  1.28831661E+00  1.28831661E+00 -6.84794034E+00 -8.20003500E-01  3.80299401E+00
  1.28831661E+00  1.28831661E+00  1.28831661E+00 -6.84794034E+00 -8.20003500E-01
  3.80299401E+00  1.28831661E+00  1.28831661E+00  1.28831661E+00 -6.84794034E+00
 -8.20003500E-01  3.80299401E+00  1.28831661E+00  1.28831661E+00  1.28831661E+00
 -6.84794034E+00 -8.20003500E-01  3.80299401E+00  1.28831661E+00  1.28831661E+00
  1.28831661E+00 -6.84794034E+00 -8.20003500E-01  3.80299401E+00  1.28831661E+00
  1.28831661E+00  1.28831661E+00 -6.84794034E+00 -8.20003500E-01  3.80299401E+00
  1.28831661E+00  1.28831661E+00  1.28831661E+00 -6.84794034E+00 -8.20003500E-01
  3.80299401E+00  1.28831661E+00  1.28831661E+00  1.28831661E+00 -6.84794034E+00
 -8.20003500E-01  3.80299401E+00  1.28831661E+00  1.28831661E+00  1.28831661E+00
 -6.84794034E+00 -8.20003500E-01  3.80299401E+00  1.28831661E+00  1.28831661E+00
  1.28831661E+00 -6.84794034E+00 -8.20003500E-01  3.80299401E+00  1.28831661E+00
  1.28831661E+00  1.28831661E+00 -6.84794034E+00 -8.20003500E-01  3.80299401E+00
  1.28831661E+00  1.28831661E+00  1.28831661E+00 -6.84794034E+00 -8.20003500E-01
  3.80299401E+00  1.28831661E+00  1.28831661E+00  1.28831661E+00 -6.84794034E+00
 -8.20003500E-01  3.80299401E+00  1.28831661E+00  1.28831661E+00  1.28831661E+00
 -6.84794034E+00 -8.20003500E-01  3.80299401E+00  1.28831661E+00  1.28831661E+00
  1.28831661E+00 -6.84794034E+00 -8.20003500E-01  3.80299401E+00  1.28831661E+00
  1.28831661E+00  1.28831661E+00 -6.84794034E+00 -8.20003500E-01  3.80299401E+00
  1.28831661E+00  1.28831661E+00  1.28831661E+00 -6.84794034E+00 -8.20003500E-01
  3.80299401E+00  1.28831661E+00  1.28831661E+00  1.28831661E+00 -6.84794034E+00
 -8.20003500E-01  3.80299401E+00  1.28831661E+00  1.28831661E+00  1.28831661E+00
 -6.84794034E+00 -8.20003500E-01  3.80299401E+00  1.28831661E+00  1.28831661E+00
  1.28831661E+00 -6.84794034E+00 -8.20003500E-01  3.80299401E+00  1.28831661E+00
  1.28831661E+00  1.28831661E+00 -6.84794034E+00 -8.20003500E-01  3.80299401E+00
  1.28831661E+00  1.28831661E+00  1.28831661E+00 -6.84794034E+00 -8.20003500E-01
  3.80299401E+00  1.28831661E+00  1.28831661E+00  1.28831661E+00 -6.84794034E+00
 -8.20003500E-01  3.80299401E+00  1.28831661E+00  1.28831661E+00  1.28831661E+00
 -6.84794034E+00 -8.20003500E-01  3.80299401E+00  1.28831661E+00  1.28831661E+00
  1.28831661E+00 -6.84794034E+00 -8.20003500E-01  3.80299401E+00  1.28831661E+00
  1.28831661E+00  1.28831661E+00 -6.84794034E+00 -8.20003500E-01  3.80299401E+00
  1.28831661E+00  1.28831661E+00  1.28831661E+00 -6.84794034E+00 -8.20003500E-01
  3.80299401E+00  1.28831661E+00  1.28831661E+00  1.28831661E+00 -6.84794034E+00
 -8.20003500E-01  3.80299401E+00  1.28831661E+00  1.28831661E+00  1.28831661E+00
 -6.84794034E+00 -8.20003500E-01  3.80299401E+00  1.28831661E+00  1.28831661E+00
  1.28831661E+00 -6.84794034E+00 -8.20003500E-01  3.80299401E+00  1.28831661E+00
  1.28831661E+00  1.28831661E+00 -6.84794034E+00 -8.20003500E-01  3.80299401E+00
  1.28831661E+00  1.28831661E+00  1.28831661E+00 -6.84794034E+00 -8.20003500E-01
  3.80299401E+00  1.28831661E+00  1.28831661E+00  1.28831661E+00 -6.84794034E+00
 -8.20003500E-01  3.80299401E+00  1.28831661E+00  1.28831661E+00  1.28831661E+00
 -6.84794034E+00 -8.20003500E-01  3.80299401E+00  1.28831661E+00  1.28831661E+00
  1.28831661E+00 -6.84794034E+00 -8.20003500E-01  3.80299401E+00  1.28831661E+00
  1.28831661E+00  1.28831661E+00 -6.84794034E+00 -8.20003500E-01  3.80299401E+00
  1.28831661E+00  1.28831661E+00  1.28831661E+00 -6.84794034E+00 -8.20003500E-01
  3.80299401E+00  1.28831661E+00  1.28831661E+00  1.28831661E+00 -6.84794034E+00
 -8.20003500E-01  3.80299401E+00  1.28831661E+00  1.28831661E+00  1.28831661E+00
 -6.84794034E+00 -8.20003500E-01  3.80299401E+00  1.28831661E+00  1.28831661E+00
  1.28831661E+00 -6.84794034E+00 -8.20003500E-01  3.80299401E+00  1.28831661E+00
  1.28831661E+00  1.28831661E+00 -6.84794034E+00 -8.20003500E-01  3.80299401E+00
  1.28831661E+00  1.28831661E+00  1.28831661E+00 -6.84794034E+00 -8.20003500E-01
  3.80299401E+00  1.28831661E+00  1.28831661E+00  1.28831661E+00 -6.84794034E+00
 -8.20003500E-01  3.80299401E+00  1.28831661E+00  1.28831661E+00  1.28831661E+00
 -6.84794034E+00 -8.20003500E-01  3.80299401E+00  1.28831661E+00  1.28831661E+00
  1.28831661E+00 -6.84794034E+00 -8.20003500E-01  3.80299401E+00  1.28831661E+00
  1.28831661E+00  1.28831661E+00 -6.84794034E+00 -8.20003500E-01  3.80299401E+00
  1.28831661E+00  1.28831661E+00  1.28831661E+00 -6.84794034E+00 -8.20003500E-01
  3.80299401E+00  1.28831661E+00  1.28831661E+00  1.28831661E+00 -6.84794034E+00
 -8.20003500E-01  3.80299401E+00  1.28831661E+00  1.28831661E+00  1.28831661E+00
 -6.84794034E+00 -8.20003500E-01  3.80299401E+00  1.28831661E+00  1.28831661E+00
  1.28831661E+00 -6.84794034E+00 -8.20003500E-01  3.80299401E+00  1.28831661E+00
  1.28831661E+00  1.28831661E+00 -6.84794034E+00 -8.20003500E-01  3.80299401E+00
  1.28831661E+00  1.28831661E+00  1.28831661E+00 -6.84794034E+00 -8.20003500E-01
  3.80299401E+00  1.28831661E+00  1.28831661E+00  1.28831661E+00 -6.84794034E+00
 -8.20003500E-01  3.80299401E+00  1.28831661E+00  1.28831661E+00  1.28831661E+00
 -6.84794034E+00 -8.20003500E-01  3.80299401E+00  1.28831661E+00  1.28831661E+00
  1.28831661E+00 -6.84794034E+00 -8.20003500E-01  3.80299401E+00  1.28831661E+00
  1.28831661E+00  1.28831661E+00 -6.84794034E+00 -8.20003500E-01  3.80299401E+00
  1.28831661E+00  1.28831661E+00  1.28831661E+00 -6.84794034E+00 -8.20003500E-01
  3.80299401E+00  1.28831661E+00  1.28831661E+00  1.28831661E+00 -6.84794034E+00
 -8.20003500E-01  3.80299401E+00  1.28831661E+00  1.28831661E+00  1.28831661E+00
 -6.84794034E+00 -8.20003500E-01  3.80299401E+00  1.28831661E+00  1.28831661E+00
  1.28831661E+00 -6.84794034E+00 -8.20003500E-01  3.80299401E+00  1.28831661E+00
  1.28831661E+00  1.28831661E+00 -6.84794034E+00 -8.20003500E-01  3.80299401E+00
  1.28831661E+00  1.28831661E+00  1.28831661E+00 -6.84794034E+00 -8.20003500E-01
  3.80299401E+00  1.28831661E+00  1.28831661E+00  1.28831661E+00 -6.84794034E+00
 -8.20003500E-01  3.80299401E+00  1.28831661E+00  1.28831661E+00  1.28831661E+00
 -6.84794034E+00 -8.20003500E-01  3.80299401E+00  1.28831661E+00  1.28831661E+00
  1.28831661E+00 -6.84794034E+00 -8.20003500E-01  3.80299401E+00  1.28831661E+00
  1.28831661E+00  1.28831661E+00 -6.84794034E+00 -8.20003500E-01  3.80299401E+00
  1.28831661E+00  1.28831661E+00  1.28831661E+00 -6.84794034E+00 -8.20003500E-01
  3.80299401E+00  1.28831661E+00  1.28831661E+00  1.28831661E+00 -6.84794034E+00
 -8.20003500E-01  3.80299401E+00  1.28831661E+00  1.28831661E+00  1.28831661E+00
 -6.84794034E+00 -8.20003500E-01  3.80299401E+00  1.28831661E+00  1.28831661E+00
  1.28831661E+00 -6.84794034E+00 -8.20003500E-01  3.80299401E+00  1.28831661E+00
  1.28831661E+00  1.28831661E+00 -6.84794034E+00 -8.20003500E-01  3.80299401E+00
  1.28831661E+00  1.28831661E+00  1.28831661E+00 -6.84794034E+00 -8.20003500E-01
  3.80299401E+00  1.28831661E+00  1.28831661E+00  1.28831661E+00 -6.84794034E+00
 -8.20003500E-01  3.80299401E+00  1.28831661E+00  1.28831661E+00  1.28831661E+00
 -6.84794034E+00 -8.20003500E-01  3.80299401E+00  1.28831661E+00  1.28831661E+00
  1.28831661E+00 -6.84794034E+00 -8.20003500E-01  3.80299401E+00  1.28831661E+00
  1.28831661E+00  1.28831661E+00 -6.84794034E+00 -8.20003500E-01  3.80299401E+00
  1.28831661E+00  1.28831661E+00  1.28831661E+00 -6.84794034E+00 -8.20003500E-01
  3.80299401E+00  1.28831661E+00  1.28831661E+00  1.28831661E+00 -6.84794034E+00
 -8.20003500E-01  3.80299401E+00  1.28831661E+00  1.28831661E+00  1.28831661E+00
 -6.84794034E+00 -8.20003500E-01  3.80299401E+00  1.28831661E+00  1.28831661E+00
  1.28831661E+00 -6.84794034E+00 -8.20003500E-01  3.80299401E+00  1.28831661E+00
  1.28831661E+00  1.28831661E+00 -6.84794034E+00 -8.20003500E-01  3.80299401E+00
  1.28831661E+00  1.28831661E+00  1.28831661E+00 -6.84794034E+00 -8.20003500E-01
  3.80299401E+00  1.28831661E+00  1.28831661E+00  1.28831661E+00 -6.84794034E+00
 -8.20003500E-01  3.80299401E+00  1.28831661E+00  1.28831661E+00  1.28831661E+00
 -6.84794034E+00 -8.20003500E-01  3.80299401E+00  1.28831661E+00  1.28831661E+00
  1.28831661E+00 -6.84794034E+00 -8.20003500E-01  3.80299401E+00  1.28831661E+00
  1.28831661E+00  1.28831661E+00 -6.84794034E+00 -8.20003500E-01  3.80299401E+00
  1.28831661E+00  1.28831661E+00  1.28831661E+00 -6.84794034E+00 -8.20003500E-01
  3.80299401E+00  1.28831661E+00  1.28831661E+00  1.28831661E+00 -6.84794034E+00
 -8.20003500E-01  3.80299401E+00  1.28831661E+00  1.28831661E+00  1.28831661E+00
 -6.84794034E+00 -8.20003500E-01  3.80299401E+00  1.28831661E+00  1.28831661E+00
  1.28831661E+00 -6.84794034E+00 -8.20003500E-01  3.80299401E+00  1.28831661E+00
  1.28831661E+00  1.28831661E+00 -6.84794034E+00 -8.20003500E-01  3.80299401E+00
  1.28831661E+00  1.28831661E+00  1.28831661E+00 -6.84794034E+00 -8.20003500E-01
  3.80299401E+00  1.28831661E+00  1.28831661E+00  1.28831661E+00 -6.84794034E+00
 -8.20003500E-01  3.80299401E+00  1.28831661E+00  1.28831661E+00  1.28831661E+00
 -6.84794034E+00 -8.20003500E-01  3.80299401E+00  1.28831661E+00  1.28831661E+00
  1.28831661E+00 -6.84794034E+00 -8.20003500E-01  3.80299401E+00  1.28831661E+00
  1.28831661E+00  1.28831661E+00 -6.84794034E+00 -8.20003500E-01  3.80299401E+00
  1.28831661E+00  1.28831661E+00  1.28831661E+00 -6.84794034E+00 -8.20003500E-01
  3.80299401E+00  1.28831661E+00  1.28831661E+00  1.28831661E+00 -6.84794034E+00
 -8.20003500E-01  3.80299401E+00  1.28831661E+00  1.28831661E+00  1.28831661E+00
 -6.84794034E+00 -8.20003500E-01  3.80299401E+00  1.28831661E+00  1.28831661E+00
  1.28831661E+00 -6.84794034E+00 -8.20003500E-01  3.80299401E+00  1.28831661E+00
  1.28831661E+00  1.28831661E+00 -6.84794034E+00 -8.20003500E-01  3.80299401E+00
  1.28831661E+00  1.28831661E+00  1.28831661E+00 -6.84794034E+00 -8.20003500E-01
  3.80299401E+00  1.28831661E+00  1.28831661E+00  1.28831661E+00 -6.84794034E+00
 -8.20003500E-01  3.80299401E+00  1.28831661E+00  1.28831661E+00  1.28831661E+00
%FLAG ATOMIC_NUMBER                                                             
%FORMAT(10I8)                                                                   
       8       8       8       8       7       7       6       6       6       6
       6       6       6       6       6       6       6       6       6       6
       6       6       6       6       6       6       6       6       6       6
       1       1       1       1       1       1       1       1       1       1
       7       6       6       1       1       1       7       6       6       1
       1       1       7       6       6       1       1       1       7       6
       6       1       1       1       7       6       6       1       1       1
       7       6       6       1       1       1       7       6       6       1
       1       1       7       6       6       1       1       1       7       6
       6       1       1       1       7       6       6       1       1       1
       7       6       6       1       1       1       7       6       6       1
       1       1       7       6       6       1       1       1       7       6
       6       1       1       1       7       6       6       1       1       1
       7       6       6       1       1       1       7       6       6       1
       1       1       7       6       6       1       1       1       7       6
       6       1       1       1       7       6       6       1       1       1
       7       6       6       1       1       1       7       6       6       1
       1       1       7       6       6       1       1       1       7       6
       6       1       1       1       7       6       6       1       1       1
       7       6       6       1       1       1       7       6       6       1
       1       1       7       6       6       1       1       1       7       6
       6       1       1       1       7       6       6       1       1       1
       7       6       6       1       1       1       7       6       6       1
       1       1       7       6       6       1       1       1       7       6
       6       1       1       1       7       6       6       1       1       1
       7       6       6       1       1       1       7       6       6       1
       1       1       7       6       6       1       1       1       7       6
       6       1       1       1       7       6       6       1       1       1
       7       6       6       1       1       1       7       6       6       1
       1       1       7       6       6       1       1       1       7       6
       6       1       1       1       7       6       6       1       1       1
       7       6       6       1       1       1       7       6       6       1
       1       1       7       6       6       1       1       1       7       6
       6       1       1       1       7       6       6       1       1       1
       7       6       6       1       1       1       7       6       6       1
       1       1       7       6       6       1       1       1       7       6
       6       1       1       1       7       6       6       1       1       1
       7       6       6       1       1       1       7       6       6       1
       1       1       7       6       6       1       1       1       7       6
       6       1       1       1       7       6       6       1       1       1
       7       6       6       1       1       1       7       6       6       1
       1       1       7       6       6       1       1       1       7       6
       6       1       1       1       7       6       6       1       1       1
       7       6       6       1       1       1       7       6       6       1
       1       1       7       6       6       1       1       1       7       6
       6       1       1       1       7       6       6       1       1       1
       7       6       6       1       1       1       7       6       6       1
       1       1       7       6       6       1       1       1       7       6
       6       1       1       1       7       6       6       1       1       1
       7       6       6       1       1       1       7       6       6       1
       1       1       7       6       6       1       1       1       7       6
       6       1       1       1       7       6       6       1       1       1
       7       6       6       1       1       1       7       6       6       1
       1       1       7       6       6       1       1       1       7       6
       6       1       1       1       7       6       6       1       1       1
       7       6       6       1       1       1       7       6       6       1
       1       1       7       6       6       1       1       1       7       6
       6       1       1       1       7       6       6       1       1       1
       7       6       6       1       1       1       7       6       6       1
       1       1       7       6       6       1       1       1       7       6
       6       1       1       1       7       6       6       1       1       1
       7       6       6       1       1       1       7       6       6       1
       1       1       7       6       6       1       1       1       7       6
       6       1       1       1       7       6       6       1       1       1
       7       6       6       1       1       1       7       6       6       1
       1       1       7       6       6       1       1       1       7       6
       6       1       1       1       7       6       6       1       1       1
       7       6       6       1       1       1       7       6       6       1
       1       1       7       6       6       1       1       1       7       6
       6       1       1       1       7       6       6       1       1       1
       7       6       6       1       1       1       7       6       6       1
       1       1       7       6       6       1       1       1       7       6
       6       1       1       1       7       6       6       1       1       1
       7       6       6       1       1       1       7       6       6       1
       1       1       7       6       6       1       1       1       7       6
       6       1       1       1       7       6       6       1       1       1
       7       6       6       1       1       1       7       6       6       1
       1       1       7       6       6       1       1       1       7       6
       6       1       1       1       7       6       6       1       1       1
       7       6       6       1       1       1       7       6       6       1
       1       1       7       6       6       1       1       1       7       6
       6       1       1       1       7       6       6       1       1       1
       7       6       6       1       1       1       7       6       6       1
       1       1       7       6       6       1       1       1       7       6
       6       1       1       1       7       6       6       1       1       1
       7       6       6       1       1       1       7       6       6       1
       1       1       7       6       6       1       1       1       7       6
       6       1       1       1       7       6       6       1       1       1
       7       6       6       1       1       1       7       6       6       1
       1       1       7       6       6       1       1       1       7       6
       6       1       1       1       7       6       6       1       1       1
       7       6       6       1       1       1       7       6       6       1
       1       1       7       6       6       1       1       1       7       6
       6       1       1       1       7       6       6       1       1       1
       7       6       6       1       1       1       7       6       6       1
       1       1       7       6       6       1       1       1       7       6
       6       1       1       1       7       6       6       1       1       1
       7       6       6       1       1       1       7       6       6       1
       1       1       7       6       6       1       1       1       7       6
       6       1       1       1       7       6       6       1       1       1
       7       6       6       1       1       1       7       6       6       1
       1       1       7       6       6       1       1       1       7       6
       6       1       1       1       7       6       6       1       1       1
       7       6       6       1       1       1       7       6       6       1
       1       1       7       6       6       1       1       1       7       6
       6       1       1       1       7       6       6       1       1       1
       7       6       6       1       1       1       7       6       6       1
       1       1       7       6       6       1       1       1       7       6
       6       1       1       1       7       6       6       1       1       1
       7       6       6       1       1       1       7       6       6       1
       1       1       7       6       6       1       1       1       7       6
       6       1       1       1       7       6       6       1       1       1
       7       6       6       1       1       1       7       6       6       1
       1       1       7       6       6       1       1       1       7       6
       6       1       1       1       7       6       6       1       1       1
       7       6       6       1       1       1       7       6       6       1
       1       1       7       6       6       1       1       1       7       6
       6       1       1       1       7       6       6       1       1       1
       7       6       6       1       1       1       7       6       6       1
       1       1       7       6       6       1       1       1       7       6
       6       1       1       1       7       6       6       1       1       1
       7       6       6       1       1       1       7       6       6       1
       1       1       7       6       6       1       1       1       7       6
       6       1       1       1       7       6       6       1       1       1
       7       6       6       1       1       1       7       6       6       1
       1       1       7       6       6       1       1       1       7       6
       6       1       1       1       7       6       6       1       1       1
       7       6       6       1       1       1       7       6       6       1
       1       1       7       6       6       1       1       1       7       6
       6       1       1       1       7       6       6       1       1       1
       7       6       6       1       1       1       7       6       6       1
       1       1       7       6       6       1       1       1       7       6
       6       1       1       1       7       6       6       1       1       1
       7       6       6       1       1       1       7       6       6       1
       1       1       7       6       6       1       1       1       7       6
       6       1       1       1       7       6       6       1       1       1
       7       6       6       1       1       1       7       6       6       1
       1       1       7       6       6       1       1       1       7       6
       6       1       1       1       7       6       6       1       1       1
       7       6       6       1       1       1       7       6       6       1
       1       1       7       6       6       1       1       1       7       6
       6       1       1       1       7       6       6       1       1       1
       7       6       6       1       1       1       7       6       6       1
       1       1       7       6       6       1       1       1       7       6
       6       1       1       1       7       6       6       1       1       1
       7       6       6       1       1       1       7       6       6       1
       1       1       7       6       6       1       1       1       7       6
       6       1       1       1       7       6       6       1       1       1
       7       6       6       1       1       1       7       6       6       1
       1       1       7       6       6       1       1       1       7       6
       6       1       1       1       7       6       6       1       1       1
       7       6       6       1       1       1       7       6       6       1
       1       1       7       6       6       1       1       1       7       6
       6       1       1       1       7       6       6       1       1       1
       7       6       6       1       1       1       7       6       6       1
       1       1       7       6       6       1       1       1       7       6
       6       1       1       1       7       6       6       1       1       1
       7       6       6       1       1       1       7       6       6       1
       1       1       7       6       6       1       1       1       7       6
       6       1       1       1       7       6       6       1       1       1
       7       6       6       1       1       1       7       6       6       1
       1       1       7       6       6       1       1       1       7       6
       6       1       1       1       7       6       6       1       1       1
       7       6       6       1       1       1       7       6       6       1
       1       1       7       6       6       1       1       1       7       6
       6       1       1       1       7       6       6       1       1       1
       7       6       6       1       1       1       7       6       6       1
       1       1       7       6       6       1       1       1       7       6
       6       1       1       1       7       6       6       1       1       1
       7       6       6       1       1       1       7       6       6       1
       1       1       7       6       6       1       1       1       7       6
       6       1       1       1       7       6       6       1       1       1
       7       6       6       1       1       1       7       6       6       1
       1       1       7       6       6       1       1       1       7       6
       6       1       1       1       7       6       6       1       1       1
       7       6       6       1       1       1       7       6       6       1
       1       1       7       6       6       1       1       1       7       6
       6       1       1       1       7       6       6       1       1       1
       7       6       6       1       1       1       7       6       6       1
       1       1       7       6       6       1       1       1       7       6
       6       1       1       1       7       6       6       1       1       1
       7       6       6       1       1       1       7       6       6       1
       1       1       7       6       6       1       1       1       7       6
       6       1       1       1       7       6       6       1       1       1
       7       6       6       1       1       1       7       6       6       1
       1       1       7       6       6       1       1       1       7       6
       6       1       1       1       7       6       6       1       1       1
       7       6       6       1       1       1       7       6       6       1
       1       1       7       6       6       1       1       1       7       6
       6       1       1       1       7       6       6       1       1       1
       7       6       6       1       1       1       7       6       6       1
       1       1       7       6       6       1       1       1       7       6
       6       1       1       1       7       6       6       1       1       1
       7       6       6       1       1       1       7       6       6       1
       1       1       7       6       6       1       1       1       7       6
       6       1       1       1       7       6       6       1       1       1
       7       6       6       1       1       1       7       6       6       1
       1       1       7       6       6       1       1       1       7       6
       6       1       1       1       7       6       6       1       1       1
       7       6       6       1       1       1       7       6       6       1
       1       1       7       6       6       1       1       1       7       6
       6       1       1       1       7       6       6       1       1       1
       7       6       6       1       1       1       7       6       6       1
       1       1       7       6       6       1       1       1       7       6
       6       1       1       1       7       6       6       1       1       1
       7       6       6       1       1       1       7       6       6       1
       1       1       7       6       6       1       1       1       7       6
       6       1       1       1       7       6       6       1       1       1
%FLAG MASS                                                                      
%FORMAT(5E16.8)                                                                 
  1.60000000E+01  1.60000000E+01  1.60000000E+01  1.60000000E+01  1.40100000E+01
  1.40100000E+01  1.20100000E+01  1.20100000E+01  1.20100000E+01  1.20100000E+01
  1.20100000E+01  1.20100000E+01  1.20100000E+01  1.20100000E+01  1.20100000E+01
  1.20100000E+01  1.20100000E+01  1.20100000E+01  1.20100000E+01  1.20100000E+01
  1.20100000E+01  1.20100000E+01  1.20100000E+01  1.20100000E+01  1.20100000E+01
  1.20100000E+01  1.20100000E+01  1.20100000E+01  1.20100000E+01  1.20100000E+01
  1.00800000E+00  1.00800000E+00  1.00800000E+00  1.00800000E+00  1.00800000E+00
  1.00800000E+00  1.00800000E+00  1.00800000E+00  1.00800000E+00  1.00800000E+00
  1.40100000E+01  1.20100000E+01  1.20100000E+01  1.00800000E+00  1.00800000E+00
  1.00800000E+00  1.40100000E+01  1.20100000E+01  1.20100000E+01  1.00800000E+00
  1.00800000E+00  1.00800000E+00  1.40100000E+01  1.20100000E+01  1.20100000E+01
  1.00800000E+00  1.00800000E+00  1.00800000E+00  1.40100000E+01  1.20100000E+01
  1.20100000E+01  1.00800000E+00  1.00800000E+00  1.00800000E+00  1.40100000E+01
  1.20100000E+01  1.20100000E+01  1.00800000E+00  1.00800000E+00  1.00800000E+00
  1.40100000E+01  1.20100000E+01  1.20100000E+01  1.00800000E+00  1.00800000E+00
  1.00800000E+00  1.40100000E+01  1.20100000E+01  1.20100000E+01  1.00800000E+00
  1.00800000E+00  1.00800000E+00  1.40100000E+01  1.20100000E+01  1.20100000E+01
  1.00800000E+00  1.00800000E+00  1.00800000E+00  1.40100000E+01  1.20100000E+01
  1.20100000E+01  1.00800000E+00  1.00800000E+00  1.00800000E+00  1.40100000E+01
  1.20100000E+01  1.20100000E+01  1.00800000E+00  1.00800000E+00  1.00800000E+00
  1.40100000E+01  1.20100000E+01  1.20100000E+01  1.00800000E+00  1.00800000E+00
  1.00800000E+00  1.40100000E+01  1.20100000E+01  1.20100000E+01  1.00800000E+00
  1.00800000E+00  1.00800000E+00  1.40100000E+01  1.20100000E+01  1.20100000E+01
  1.00800000E+00  1.00800000E+00  1.00800000E+00  1.40100000E+01  1.20100000E+01
  1.20100000E+01  1.00800000E+00  1.00800000E+00  1.00800000E+00  1.40100000E+01
  1.20100000E+01  1.20100000E+01  1.00800000E+00  1.00800000E+00  1.00800000E+00
  1.40100000E+01  1.20100000E+01  1.20100000E+01  1.00800000E+00  1.00800000E+00
  1.00800000E+00  1.40100000E+01  1.20100000E+01  1.20100000E+01  1.00800000E+00
  1.00800000E+00  1.00800000E+00  1.40100000E+01  1.20100000E+01  1.20100000E+01
  1.00800000E+00  1.00800000E+00  1.00800000E+00  1.40100000E+01  1.20100000E+01
  1.20100000E+01  1.00800000E+00  1.00800000E+00  1.00800000E+00  1.40100000E+01
  1.20100000E+01  1.20100000E+01  1.00800000E+00  1.00800000E+00  1.00800000E+00
  1.40100000E+01  1.20100000E+01  1.20100000E+01  1.00800000E+00  1.00800000E+00
  1.00800000E+00  1.40100000E+01  1.20100000E+01  1.20100000E+01  1.00800000E+00
  1.00800000E+00  1.00800000E+00  1.40100000E+01  1.20100000E+01  1.20100000E+01
  1.00800000E+00  1.00800000E+00  1.00800000E+00  1.40100000E+01  1.20100000E+01
  1.20100000E+01  1.00800000E+00  1.00800000E+00  1.00800000E+00  1.40100000E+01
  1.20100000E+01  1.20100000E+01  1.00800000E+00  1.00800000E+00  1.00800000E+00
  1.40100000E+01  1.20100000E+01  1.20100000E+01  1.00800000E+00  1.00800000E+00
  1.00800000E+00  1.40100000E+01  1.20100000E+01  1.20100000E+01  1.00800000E+00
  1.00800000E+00  1.00800000E+00  1.40100000E+01  1.20100000E+01  1.20100000E+01
  1.00800000E+00  1.00800000E+00  1.00800000E+00  1.40100000E+01  1.20100000E+01
  1.20100000E+01  1.00800000E+00  1.00800000E+00  1.00800000E+00  1.40100000E+01
  1.20100000E+01  1.20100000E+01  1.00800000E+00  1.00800000E+00  1.00800000E+00
  1.40100000E+01  1.20100000E+01  1.20100000E+01  1.00800000E+00  1.00800000E+00
  1.00800000E+00  1.40100000E+01  1.20100000E+01  1.20100000E+01  1.00800000E+00
  1.00800000E+00  1.00800000E+00  1.40100000E+01  1.20100000E+01  1.20100000E+01
  1.00800000E+00  1.00800000E+00  1.00800000E+00  1.40100000E+01  1.20100000E+01
  1.20100000E+01  1.00800000E+00  1.00800000E+00  1.00800000E+00  1.40100000E+01
  1.20100000E+01  1.20100000E+01  1.00800000E+00  1.00800000E+00  1.00800000E+00
  1.40100000E+01  1.20100000E+01  1.20100000E+01  1.00800000E+00  1.00800000E+00
  1.00800000E+00  1.40100000E+01  1.20100000E+01  1.20100000E+01  1.00800000E+00
  1.00800000E+00  1.00800000E+00  1.40100000E+01  1.20100000E+01  1.20100000E+01
  1.00800000E+00  1.00800000E+00  1.00800000E+00  1.40100000E+01  1.20100000E+01
  1.20100000E+01  1.00800000E+00  1.00800000E+00  1.00800000E+00  1.40100000E+01
  1.20100000E+01  1.20100000E+01  1.00800000E+00  1.00800000E+00  1.00800000E+00
  1.40100000E+01  1.20100000E+01  1.20100000E+01  1.00800000E+00  1.00800000E+00
  1.00800000E+00  1.40100000E+01  1.20100000E+01  1.20100000E+01  1.00800000E+00
  1.00800000E+00  1.00800000E+00  1.40100000E+01  1.20100000E+01  1.20100000E+01
  1.00800000E+00  1.00800000E+00  1.00800000E+00  1.40100000E+01  1.20100000E+01
  1.20100000E+01  1.00800000E+00  1.00800000E+00  1.00800000E+00  1.40100000E+01
  1.20100000E+01  1.20100000E+01  1.00800000E+00  1.00800000E+00  1.00800000E+00
  1.40100000E+01  1.20100000E+01  1.20100000E+01  1.00800000E+00  1.00800000E+00
  1.00800000E+00  1.40100000E+01  1.20100000E+01  1.20100000E+01  1.00800000E+00
  1.00800000E+00  1.00800000E+00  1.40100000E+01  1.20100000E+01  1.20100000E+01
  1.00800000E+00  1.00800000E+00  1.00800000E+00  1.40100000E+01  1.20100000E+01
  1.20100000E+01  1.00800000E+00  1.00800000E+00  1.00800000E+00  1.40100000E+01
  1.20100000E+01  1.20100000E+01  1.00800000E+00  1.00800000E+00  1.00800000E+00
  1.40100000E+01  1.20100000E+01  1.20100000E+01  1.00800000E+00  1.00800000E+00
  1.00800000E+00  1.40100000E+01  1.20100000E+01  1.20100000E+01  1.00800000E+00
  1.00800000E+00  1.00800000E+00  1.40100000E+01  1.20100000E+01  1.20100000E+01
  1.00800000E+00  1.00800000E+00  1.00800000E+00  1.40100000E+01  1.20100000E+01
  1.20100000E+01  1.00800000E+00  1.00800000E+00  1.00800000E+00  1.40100000E+01
  1.20100000E+01  1.20100000E+01  1.00800000E+00  1.00800000E+00  1.00800000E+00
  1.40100000E+01  1.20100000E+01  1.20100000E+01  1.00800000E+00  1.00800000E+00
  1.00800000E+00  1.40100000E+01  1.20100000E+01  1.20100000E+01  1.00800000E+00
  1.00800000E+00  1.00800000E+00  1.40100000E+01  1.20100000E+01  1.20100000E+01
  1.00800000E+00  1.00800000E+00  1.00800000E+00  1.40100000E+01  1.20100000E+01
  1.20100000E+01  1.00800000E+00  1.00800000E+00  1.00800000E+00  1.40100000E+01
  1.20100000E+01  1.20100000E+01  1.00800000E+00  1.00800000E+00  1.00800000E+00
  1.40100000E+01  1.20100000E+01  1.20100000E+01  1.00800000E+00  1.00800000E+00
  1.00800000E+00  1.40100000E+01  1.20100000E+01  1.20100000E+01  1.00800000E+00
  1.00800000E+00  1.00800000E+00  1.40100000E+01  1.20100000E+01  1.20100000E+01
  1.00800000E+00  1.00800000E+00  1.00800000E+00  1.40100000E+01  1.20100000E+01
  1.20100000E+01  1.00800000E+00  1.00800000E+00  1.00800000E+00  1.40100000E+01
  1.20100000E+01  1.20100000E+01  1.00800000E+00  1.00800000E+00  1.00800000E+00
  1.40100000E+01  1.20100000E+01  1.20100000E+01  1.00800000E+00  1.00800000E+00
  1.00800000E+00  1.40100000E+01  1.20100000E+01  1.20100000E+01  1.00800000E+00
  1.00800000E+00  1.00800000E+00  1.40100000E+01  1.20100000E+01  1.20100000E+01
  1.00800000E+00  1.00800000E+00  1.00800000E+00  1.40100000E+01  1.20100000E+01
  1.20100000E+01  1.00800000E+00  1.00800000E+00  1.00800000E+00  1.40100000E+01
  1.20100000E+01  1.20100000E+01  1.00800000E+00  1.00800000E+00  1.00800000E+00
  1.40100000E+01  1.20100000E+01  1.20100000E+01  1.00800000E+00  1.00800000E+00
  1.00800000E+00  1.40100000E+01  1.20100000E+01  1.20100000E+01  1.00800000E+00
  1.00800000E+00  1.00800000E+00  1.40100000E+01  1.20100000E+01  1.20100000E+01
  1.00800000E+00  1.00800000E+00  1.00800000E+00  1.40100000E+01  1.20100000E+01
  1.20100000E+01  1.00800000E+00  1.00800000E+00  1.00800000E+00  1.40100000E+01
  1.20100000E+01  1.20100000E+01  1.00800000E+00  1.00800000E+00  1.00800000E+00
  1.40100000E+01  1.20100000E+01  1.20100000E+01  1.00800000E+00  1.00800000E+00
  1.00800000E+00  1.40100000E+01  1.20100000E+01  1.20100000E+01  1.00800000E+00
  1.00800000E+00  1.00800000E+00  1.40100000E+01  1.20100000E+01  1.20100000E+01
  1.00800000E+00  1.00800000E+00  1.00800000E+00  1.40100000E+01  1.20100000E+01
  1.20100000E+01  1.00800000E+00  1.00800000E+00  1.00800000E+00  1.40100000E+01
  1.20100000E+01  1.20100000E+01  1.00800000E+00  1.00800000E+00  1.00800000E+00
  1.40100000E+01  1.20100000E+01  1.20100000E+01  1.00800000E+00  1.00800000E+00
  1.00800000E+00  1.40100000E+01  1.20100000E+01  1.20100000E+01  1.00800000E+00
  1.00800000E+00  1.00800000E+00  1.40100000E+01  1.20100000E+01  1.20100000E+01
  1.00800000E+00  1.00800000E+00  1.00800000E+00  1.40100000E+01  1.20100000E+01
  1.20100000E+01  1.00800000E+00  1.00800000E+00  1.00800000E+00  1.40100000E+01
  1.20100000E+01  1.20100000E+01  1.00800000E+00  1.00800000E+00  1.00800000E+00
  1.40100000E+01  1.20100000E+01  1.20100000E+01  1.00800000E+00  1.00800000E+00
  1.00800000E+00  1.40100000E+01  1.20100000E+01  1.20100000E+01  1.00800000E+00
  1.00800000E+00  1.00800000E+00  1.40100000E+01  1.20100000E+01  1.20100000E+01
  1.00800000E+00  1.00800000E+00  1.00800000E+00  1.40100000E+01  1.20100000E+01
  1.20100000E+01  1.00800000E+00  1.00800000E+00  1.00800000E+00  1.40100000E+01
  1.20100000E+01  1.20100000E+01  1.00800000E+00  1.00800000E+00  1.00800000E+00
  1.40100000E+01  1.20100000E+01  1.20100000E+01  1.00800000E+00  1.00800000E+00
  1.00800000E+00  1.40100000E+01  1.20100000E+01  1.20100000E+01  1.00800000E+00
  1.00800000E+00  1.00800000E+00  1.40100000E+01  1.20100000E+01  1.20100000E+01
  1.00800000E+00  1.00800000E+00  1.00800000E+00  1.40100000E+01  1.20100000E+01
  1.20100000E+01  1.00800000E+00  1.00800000E+00  1.00800000E+00  1.40100000E+01
  1.20100000E+01  1.20100000E+01  1.00800000E+00  1.00800000E+00  1.00800000E+00
  1.40100000E+01  1.20100000E+01  1.20100000E+01  1.00800000E+00  1.00800000E+00
  1.00800000E+00  1.40100000E+01  1.20100000E+01  1.20100000E+01  1.00800000E+00
  1.00800000E+00  1.00800000E+00  1.40100000E+01  1.20100000E+01  1.20100000E+01
  1.00800000E+00  1.00800000E+00  1.00800000E+00  1.40100000E+01  1.20100000E+01
  1.20100000E+01  1.00800000E+00  1.00800000E+00  1.00800000E+00  1.40100000E+01
  1.20100000E+01  1.20100000E+01  1.00800000E+00  1.00800000E+00  1.00800000E+00
  1.40100000E+01  1.20100000E+01  1.20100000E+01  1.00800000E+00  1.00800000E+00
  1.00800000E+00  1.40100000E+01  1.20100000E+01  1.20100000E+01  1.00800000E+00
  1.00800000E+00  1.00800000E+00  1.40100000E+01  1.20100000E+01  1.20100000E+01
  1.00800000E+00  1.00800000E+00  1.00800000E+00  1.40100000E+01  1.20100000E+01
  1.20100000E+01  1.00800000E+00  1.00800000E+00  1.00800000E+00  1.40100000E+01
  1.20100000E+01  1.20100000E+01  1.00800000E+00  1.00800000E+00  1.00800000E+00
  1.40100000E+01  1.20100000E+01  1.20100000E+01  1.00800000E+00  1.00800000E+00
  1.00800000E+00  1.40100000E+01  1.20100000E+01  1.20100000E+01  1.00800000E+00
  1.00800000E+00  1.00800000E+00  1.40100000E+01  1.20100000E+01  1.20100000E+01
  1.00800000E+00  1.00800000E+00  1.00800000E+00  1.40100000E+01  1.20100000E+01
  1.20100000E+01  1.00800000E+00  1.00800000E+00  1.00800000E+00  1.40100000E+01
  1.20100000E+01  1.20100000E+01  1.00800000E+00  1.00800000E+00  1.00800000E+00
  1.40100000E+01  1.20100000E+01  1.20100000E+01  1.00800000E+00  1.00800000E+00
  1.00800000E+00  1.40100000E+01  1.20100000E+01  1.20100000E+01  1.00800000E+00
  1.00800000E+00  1.00800000E+00  1.40100000E+01  1.20100000E+01  1.20100000E+01
  1.00800000E+00  1.00800000E+00  1.00800000E+00  1.40100000E+01  1.20100000E+01
  1.20100000E+01  1.00800000E+00  1.00800000E+00  1.00800000E+00  1.40100000E+01
  1.20100000E+01  1.20100000E+01  1.00800000E+00  1.00800000E+00  1.00800000E+00
  1.40100000E+01  1.20100000E+01  1.20100000E+01  1.00800000E+00  1.00800000E+00
  1.00800000E+00  1.40100000E+01  1.20100000E+01  1.20100000E+01  1.00800000E+00
  1.00800000E+00  1.00800000E+00  1.40100000E+01  1.20100000E+01  1.20100000E+01
  1.00800000E+00  1.00800000E+00  1.00800000E+00  1.40100000E+01  1.20100000E+01
  1.20100000E+01  1.00800000E+00  1.00800000E+00  1.00800000E+00  1.40100000E+01
  1.20100000E+01  1.20100000E+01  1.00800000E+00  1.00800000E+00  1.00800000E+00
  1.40100000E+01  1.20100000E+01  1.20100000E+01  1.00800000E+00  1.00800000E+00
  1.00800000E+00  1.40100000E+01  1.20100000E+01  1.20100000E+01  1.00800000E+00
  1.00800000E+00  1.00800000E+00  1.40100000E+01  1.20100000E+01  1.20100000E+01
  1.00800000E+00  1.00800000E+00  1.00800000E+00  1.40100000E+01  1.20100000E+01
  1.20100000E+01  1.00800000E+00  1.00800000E+00  1.00800000E+00  1.40100000E+01
  1.20100000E+01  1.20100000E+01  1.00800000E+00  1.00800000E+00  1.00800000E+00
  1.40100000E+01  1.20100000E+01  1.20100000E+01  1.00800000E+00  1.00800000E+00
  1.00800000E+00  1.40100000E+01  1.20100000E+01  1.20100000E+01  1.00800000E+00
  1.00800000E+00  1.00800000E+00  1.40100000E+01  1.20100000E+01  1.20100000E+01
  1.00800000E+00  1.00800000E+00  1.00800000E+00  1.40100000E+01  1.20100000E+01
  1.20100000E+01  1.00800000E+00  1.00800000E+00  1.00800000E+00  1.40100000E+01
  1.20100000E+01  1.20100000E+01  1.00800000E+00  1.00800000E+00  1.00800000E+00
  1.40100000E+01  1.20100000E+01  1.20100000E+01  1.00800000E+00  1.00800000E+00
  1.00800000E+00  1.40100000E+01  1.20100000E+01  1.20100000E+01  1.00800000E+00
  1.00800000E+00  1.00800000E+00  1.40100000E+01  1.20100000E+01  1.20100000E+01
  1.00800000E+00  1.00800000E+00  1.00800000E+00  1.40100000E+01  1.20100000E+01
  1.20100000E+01  1.00800000E+00  1.00800000E+00  1.00800000E+00  1.40100000E+01
  1.20100000E+01  1.20100000E+01  1.00800000E+00  1.00800000E+00  1.00800000E+00
  1.40100000E+01  1.20100000E+01  1.20100000E+01  1.00800000E+00  1.00800000E+00
  1.00800000E+00  1.40100000E+01  1.20100000E+01  1.20100000E+01  1.00800000E+00
  1.00800000E+00  1.00800000E+00  1.40100000E+01  1.20100000E+01  1.20100000E+01
  1.00800000E+00  1.00800000E+00  1.00800000E+00  1.40100000E+01  1.20100000E+01
  1.20100000E+01  1.00800000E+00  1.00800000E+00  1.00800000E+00  1.40100000E+01
  1.20100000E+01  1.20100000E+01  1.00800000E+00  1.00800000E+00  1.00800000E+00
  1.40100000E+01  1.20100000E+01  1.20100000E+01  1.00800000E+00  1.00800000E+00
  1.00800000E+00  1.40100000E+01  1.20100000E+01  1.20100000E+01  1.00800000E+00
  1.00800000E+00  1.00800000E+00  1.40100000E+01  1.20100000E+01  1.20100000E+01
  1.00800000E+00  1.00800000E+00  1.00800000E+00  1.40100000E+01  1.20100000E+01
  1.20100000E+01  1.00800000E+00  1.00800000E+00  1.00800000E+00  1.40100000E+01
  1.20100000E+01  1.20100000E+01  1.00800000E+00  1.00800000E+00  1.00800000E+00
  1.40100000E+01  1.20100000E+01  1.20100000E+01  1.00800000E+00  1.00800000E+00
  1.00800000E+00  1.40100000E+01  1.20100000E+01  1.20100000E+01  1.00800000E+00
  1.00800000E+00  1.00800000E+00  1.40100000E+01  1.20100000E+01  1.20100000E+01
  1.00800000E+00  1.00800000E+00  1.00800000E+00  1.40100000E+01  1.20100000E+01
  1.20100000E+01  1.00800000E+00  1.00800000E+00  1.00800000E+00  1.40100000E+01
  1.20100000E+01  1.20100000E+01  1.00800000E+00  1.00800000E+00  1.00800000E+00
  1.40100000E+01  1.20100000E+01  1.20100000E+01  1.00800000E+00  1.00800000E+00
  1.00800000E+00  1.40100000E+01  1.20100000E+01  1.20100000E+01  1.00800000E+00
  1.00800000E+00  1.00800000E+00  1.40100000E+01  1.20100000E+01  1.20100000E+01
  1.00800000E+00  1.00800000E+00  1.00800000E+00  1.40100000E+01  1.20100000E+01
  1.20100000E+01  1.00800000E+00  1.00800000E+00  1.00800000E+00  1.40100000E+01
  1.20100000E+01  1.20100000E+01  1.00800000E+00  1.00800000E+00  1.00800000E+00
  1.40100000E+01  1.20100000E+01  1.20100000E+01  1.00800000E+00  1.00800000E+00
  1.00800000E+00  1.40100000E+01  1.20100000E+01  1.20100000E+01  1.00800000E+00
  1.00800000E+00  1.00800000E+00  1.40100000E+01  1.20100000E+01  1.20100000E+01
  1.00800000E+00  1.00800000E+00  1.00800000E+00  1.40100000E+01  1.20100000E+01
  1.20100000E+01  1.00800000E+00  1.00800000E+00  1.00800000E+00  1.40100000E+01
  1.20100000E+01  1.20100000E+01  1.00800000E+00  1.00800000E+00  1.00800000E+00
  1.40100000E+01  1.20100000E+01  1.20100000E+01  1.00800000E+00  1.00800000E+00
  1.00800000E+00  1.40100000E+01  1.20100000E+01  1.20100000E+01  1.00800000E+00
  1.00800000E+00  1.00800000E+00  1.40100000E+01  1.20100000E+01  1.20100000E+01
  1.00800000E+00  1.00800000E+00  1.00800000E+00  1.40100000E+01  1.20100000E+01
  1.20100000E+01  1.00800000E+00  1.00800000E+00  1.00800000E+00  1.40100000E+01
  1.20100000E+01  1.20100000E+01  1.00800000E+00  1.00800000E+00  1.00800000E+00
  1.40100000E+01  1.20100000E+01  1.20100000E+01  1.00800000E+00  1.00800000E+00
  1.00800000E+00  1.40100000E+01  1.20100000E+01  1.20100000E+01  1.00800000E+00
  1.00800000E+00  1.00800000E+00  1.40100000E+01  1.20100000E+01  1.20100000E+01
  1.00800000E+00  1.00800000E+00  1.00800000E+00  1.40100000E+01  1.20100000E+01
  1.20100000E+01  1.00800000E+00  1.00800000E+00  1.00800000E+00  1.40100000E+01
  1.20100000E+01  1.20100000E+01  1.00800000E+00  1.00800000E+00  1.00800000E+00
  1.40100000E+01  1.20100000E+01  1.20100000E+01  1.00800000E+00  1.00800000E+00
  1.00800000E+00  1.40100000E+01  1.20100000E+01  1.20100000E+01  1.00800000E+00
  1.00800000E+00  1.00800000E+00  1.40100000E+01  1.20100000E+01  1.20100000E+01
  1.00800000E+00  1.00800000E+00  1.00800000E+00  1.40100000E+01  1.20100000E+01
  1.20100000E+01  1.00800000E+00  1.00800000E+00  1.00800000E+00  1.40100000E+01
  1.20100000E+01  1.20100000E+01  1.00800000E+00  1.00800000E+00  1.00800000E+00
  1.40100000E+01  1.20100000E+01  1.20100000E+01  1.00800000E+00  1.00800000E+00
  1.00800000E+00  1.40100000E+01  1.20100000E+01  1.20100000E+01  1.00800000E+00
  1.00800000E+00  1.00800000E+00  1.40100000E+01  1.20100000E+01  1.20100000E+01
  1.00800000E+00  1.00800000E+00  1.00800000E+00  1.40100000E+01  1.20100000E+01
  1.20100000E+01  1.00800000E+00  1.00800000E+00  1.00800000E+00  1.40100000E+01
  1.20100000E+01  1.20100000E+01  1.00800000E+00  1.00800000E+00  1.00800000E+00
  1.40100000E+01  1.20100000E+01  1.20100000E+01  1.00800000E+00  1.00800000E+00
  1.00800000E+00  1.40100000E+01  1.20100000E+01  1.20100000E+01  1.00800000E+00
  1.00800000E+00  1.00800000E+00  1.40100000E+01  1.20100000E+01  1.20100000E+01
  1.00800000E+00  1.00800000E+00  1.00800000E+00  1.40100000E+01  1.20100000E+01
  1.20100000E+01  1.00800000E+00  1.00800000E+00  1.00800000E+00  1.40100000E+01
  1.20100000E+01  1.20100000E+01  1.00800000E+00  1.00800000E+00  1.00800000E+00
  1.40100000E+01  1.20100000E+01  1.20100000E+01  1.00800000E+00  1.00800000E+00
  1.00800000E+00  1.40100000E+01  1.20100000E+01  1.20100000E+01  1.00800000E+00
  1.00800000E+00  1.00800000E+00  1.40100000E+01  1.20100000E+01  1.20100000E+01
  1.00800000E+00  1.00800000E+00  1.00800000E+00  1.40100000E+01  1.20100000E+01
  1.20100000E+01  1.00800000E+00  1.00800000E+00  1.00800000E+00  1.40100000E+01
  1.20100000E+01  1.20100000E+01  1.00800000E+00  1.00800000E+00  1.00800000E+00
  1.40100000E+01  1.20100000E+01  1.20100000E+01  1.00800000E+00  1.00800000E+00
  1.00800000E+00  1.40100000E+01  1.20100000E+01  1.20100000E+01  1.00800000E+00
  1.00800000E+00  1.00800000E+00  1.40100000E+01  1.20100000E+01  1.20100000E+01
  1.00800000E+00  1.00800000E+00  1.00800000E+00  1.40100000E+01  1.20100000E+01
  1.20100000E+01  1.00800000E+00  1.00800000E+00  1.00800000E+00  1.40100000E+01
  1.20100000E+01  1.20100000E+01  1.00800000E+00  1.00800000E+00  1.00800000E+00
  1.40100000E+01  1.20100000E+01  1.20100000E+01  1.00800000E+00  1.00800000E+00
  1.00800000E+00  1.40100000E+01  1.20100000E+01  1.20100000E+01  1.00800000E+00
  1.00800000E+00  1.00800000E+00  1.40100000E+01  1.20100000E+01  1.20100000E+01
  1.00800000E+00  1.00800000E+00  1.00800000E+00  1.40100000E+01  1.20100000E+01
  1.20100000E+01  1.00800000E+00  1.00800000E+00  1.00800000E+00  1.40100000E+01
  1.20100000E+01  1.20100000E+01  1.00800000E+00  1.00800000E+00  1.00800000E+00
  1.40100000E+01  1.20100000E+01  1.20100000E+01  1.00800000E+00  1.00800000E+00
  1.00800000E+00  1.40100000E+01  1.20100000E+01  1.20100000E+01  1.00800000E+00
  1.00800000E+00  1.00800000E+00  1.40100000E+01  1.20100000E+01  1.20100000E+01
  1.00800000E+00  1.00800000E+00  1.00800000E+00  1.40100000E+01  1.20100000E+01
  1.20100000E+01  1.00800000E+00  1.00800000E+00  1.00800000E+00  1.40100000E+01
  1.20100000E+01  1.20100000E+01  1.00800000E+00  1.00800000E+00  1.00800000E+00
  1.40100000E+01  1.20100000E+01  1.20100000E+01  1.00800000E+00  1.00800000E+00
  1.00800000E+00  1.40100000E+01  1.20100000E+01  1.20100000E+01  1.00800000E+00
  1.00800000E+00  1.00800000E+00  1.40100000E+01  1.20100000E+01  1.20100000E+01
  1.00800000E+00  1.00800000E+00  1.00800000E+00  1.40100000E+01  1.20100000E+01
  1.20100000E+01  1.00800000E+00  1.00800000E+00  1.00800000E+00  1.40100000E+01
  1.20100000E+01  1.20100000E+01  1.00800000E+00  1.00800000E+00  1.00800000E+00
  1.40100000E+01  1.20100000E+01  1.20100000E+01  1.00800000E+00  1.00800000E+00
  1.00800000E+00  1.40100000E+01  1.20100000E+01  1.20100000E+01  1.00800000E+00
  1.00800000E+00  1.00800000E+00  1.40100000E+01  1.20100000E+01  1.20100000E+01
  1.00800000E+00  1.00800000E+00  1.00800000E+00  1.40100000E+01  1.20100000E+01
  1.20100000E+01  1.00800000E+00  1.00800000E+00  1.00800000E+00  1.40100000E+01
  1.20100000E+01  1.20100000E+01  1.00800000E+00  1.00800000E+00  1.00800000E+00
  1.40100000E+01  1.20100000E+01  1.20100000E+01  1.00800000E+00  1.00800000E+00
  1.00800000E+00  1.40100000E+01  1.20100000E+01  1.20100000E+01  1.00800000E+00
  1.00800000E+00  1.00800000E+00  1.40100000E+01  1.20100000E+01  1.20100000E+01
  1.00800000E+00  1.00800000E+00  1.00800000E+00  1.40100000E+01  1.20100000E+01
  1.20100000E+01  1.00800000E+00  1.00800000E+00  1.00800000E+00  1.40100000E+01
  1.20100000E+01  1.20100000E+01  1.00800000E+00  1.00800000E+00  1.00800000E+00
  1.40100000E+01  1.20100000E+01  1.20100000E+01  1.00800000E+00  1.00800000E+00
  1.00800000E+00  1.40100000E+01  1.20100000E+01  1.20100000E+01  1.00800000E+00
  1.00800000E+00  1.00800000E+00  1.40100000E+01  1.20100000E+01  1.20100000E+01
  1.00800000E+00  1.00800000E+00  1.00800000E+00  1.40100000E+01  1.20100000E+01
  1.20100000E+01  1.00800000E+00  1.00800000E+00  1.00800000E+00  1.40100000E+01
  1.20100000E+01  1.20100000E+01  1.00800000E+00  1.00800000E+00  1.00800000E+00
  1.40100000E+01  1.20100000E+01  1.20100000E+01  1.00800000E+00  1.00800000E+00
  1.00800000E+00  1.40100000E+01  1.20100000E+01  1.20100000E+01  1.00800000E+00
  1.00800000E+00  1.00800000E+00  1.40100000E+01  1.20100000E+01  1.20100000E+01
  1.00800000E+00  1.00800000E+00  1.00800000E+00  1.40100000E+01  1.20100000E+01
  1.20100000E+01  1.00800000E+00  1.00800000E+00  1.00800000E+00  1.40100000E+01
  1.20100000E+01  1.20100000E+01  1.00800000E+00  1.00800000E+00  1.00800000E+00
  1.40100000E+01  1.20100000E+01  1.20100000E+01  1.00800000E+00  1.00800000E+00
  1.00800000E+00  1.40100000E+01  1.20100000E+01  1.20100000E+01  1.00800000E+00
  1.00800000E+00  1.00800000E+00  1.40100000E+01  1.20100000E+01  1.20100000E+01
  1.00800000E+00  1.00800000E+00  1.00800000E+00  1.40100000E+01  1.20100000E+01
  1.20100000E+01  1.00800000E+00  1.00800000E+00  1.00800000E+00  1.40100000E+01
  1.20100000E+01  1.20100000E+01  1.00800000E+00  1.00800000E+00  1.00800000E+00
  1.40100000E+01  1.20100000E+01  1.20100000E+01  1.00800000E+00  1.00800000E+00
  1.00800000E+00  1.40100000E+01  1.20100000E+01  1.20100000E+01  1.00800000E+00
  1.00800000E+00  1.00800000E+00  1.40100000E+01  1.20100000E+01  1.20100000E+01
  1.00800000E+00  1.00800000E+00  1.00800000E+00  1.40100000E+01  1.20100000E+01
  1.20100000E+01  1.00800000E+00  1.00800000E+00  1.00800000E+00  1.40100000E+01
  1.20100000E+01  1.20100000E+01  1.00800000E+00  1.00800000E+00  1.00800000E+00
  1.40100000E+01  1.20100000E+01  1.20100000E+01  1.00800000E+00  1.00800000E+00
  1.00800000E+00  1.40100000E+01  1.20100000E+01  1.20100000E+01  1.00800000E+00
  1.00800000E+00  1.00800000E+00  1.40100000E+01  1.20100000E+01  1.20100000E+01
  1.00800000E+00  1.00800000E+00  1.00800000E+00  1.40100000E+01  1.20100000E+01
  1.20100000E+01  1.00800000E+00  1.00800000E+00  1.00800000E+00  1.40100000E+01
  1.20100000E+01  1.20100000E+01  1.00800000E+00  1.00800000E+00  1.00800000E+00
  1.40100000E+01  1.20100000E+01  1.20100000E+01  1.00800000E+00  1.00800000E+00
  1.00800000E+00  1.40100000E+01  1.20100000E+01  1.20100000E+01  1.00800000E+00
  1.00800000E+00  1.00800000E+00  1.40100000E+01  1.20100000E+01  1.20100000E+01
  1.00800000E+00  1.00800000E+00  1.00800000E+00  1.40100000E+01  1.20100000E+01
  1.20100000E+01  1.00800000E+00  1.00800000E+00  1.00800000E+00  1.40100000E+01
  1.20100000E+01  1.20100000E+01  1.00800000E+00  1.00800000E+00  1.00800000E+00
  1.40100000E+01  1.20100000E+01  1.20100000E+01  1.00800000E+00  1.00800000E+00
  1.00800000E+00  1.40100000E+01  1.20100000E+01  1.20100000E+01  1.00800000E+00
  1.00800000E+00  1.00800000E+00  1.40100000E+01  1.20100000E+01  1.20100000E+01
  1.00800000E+00  1.00800000E+00  1.00800000E+00  1.40100000E+01  1.20100000E+01
  1.20100000E+01  1.00800000E+00  1.00800000E+00  1.00800000E+00  1.40100000E+01
  1.20100000E+01  1.20100000E+01  1.00800000E+00  1.00800000E+00  1.00800000E+00
  1.40100000E+01  1.20100000E+01  1.20100000E+01  1.00800000E+00  1.00800000E+00
  1.00800000E+00  1.40100000E+01  1.20100000E+01  1.20100000E+01  1.00800000E+00
  1.00800000E+00  1.00800000E+00  1.40100000E+01  1.20100000E+01  1.20100000E+01
  1.00800000E+00  1.00800000E+00  1.00800000E+00  1.40100000E+01  1.20100000E+01
  1.20100000E+01  1.00800000E+00  1.00800000E+00  1.00800000E+00  1.40100000E+01
  1.20100000E+01  1.20100000E+01  1.00800000E+00  1.00800000E+00  1.00800000E+00
  1.40100000E+01  1.20100000E+01  1.20100000E+01  1.00800000E+00  1.00800000E+00
  1.00800000E+00  1.40100000E+01  1.20100000E+01  1.20100000E+01  1.00800000E+00
  1.00800000E+00  1.00800000E+00  1.40100000E+01  1.20100000E+01  1.20100000E+01
  1.00800000E+00  1.00800000E+00  1.00800000E+00  1.40100000E+01  1.20100000E+01
  1.20100000E+01  1.00800000E+00  1.00800000E+00  1.00800000E+00  1.40100000E+01
  1.20100000E+01  1.20100000E+01  1.00800000E+00  1.00800000E+00  1.00800000E+00
  1.40100000E+01  1.20100000E+01  1.20100000E+01  1.00800000E+00  1.00800000E+00
  1.00800000E+00  1.40100000E+01  1.20100000E+01  1.20100000E+01  1.00800000E+00
  1.00800000E+00  1.00800000E+00  1.40100000E+01  1.20100000E+01  1.20100000E+01
  1.00800000E+00  1.00800000E+00  1.00800000E+00  1.40100000E+01  1.20100000E+01
  1.20100000E+01  1.00800000E+00  1.00800000E+00  1.00800000E+00  1.40100000E+01
  1.20100000E+01  1.20100000E+01  1.00800000E+00  1.00800000E+00  1.00800000E+00
  1.40100000E+01  1.20100000E+01  1.20100000E+01  1.00800000E+00  1.00800000E+00
  1.00800000E+00  1.40100000E+01  1.20100000E+01  1.20100000E+01  1.00800000E+00
  1.00800000E+00  1.00800000E+00  1.40100000E+01  1.20100000E+01  1.20100000E+01
  1.00800000E+00  1.00800000E+00  1.00800000E+00  1.40100000E+01  1.20100000E+01
  1.20100000E+01  1.00800000E+00  1.00800000E+00  1.00800000E+00  1.40100000E+01
  1.20100000E+01  1.20100000E+01  1.00800000E+00  1.00800000E+00  1.00800000E+00
  1.40100000E+01  1.20100000E+01  1.20100000E+01  1.00800000E+00  1.00800000E+00
  1.00800000E+00  1.40100000E+01  1.20100000E+01  1.20100000E+01  1.00800000E+00
  1.00800000E+00  1.00800000E+00  1.40100000E+01  1.20100000E+01  1.20100000E+01
  1.00800000E+00  1.00800000E+00  1.00800000E+00  1.40100000E+01  1.20100000E+01
  1.20100000E+01  1.00800000E+00  1.00800000E+00  1.00800000E+00  1.40100000E+01
  1.20100000E+01  1.20100000E+01  1.00800000E+00  1.00800000E+00  1.00800000E+00
  1.40100000E+01  1.20100000E+01  1.20100000E+01  1.00800000E+00  1.00800000E+00
  1.00800000E+00  1.40100000E+01  1.20100000E+01  1.20100000E+01  1.00800000E+00
  1.00800000E+00  1.00800000E+00  1.40100000E+01  1.20100000E+01  1.20100000E+01
  1.00800000E+00  1.00800000E+00  1.00800000E+00  1.40100000E+01  1.20100000E+01
  1.20100000E+01  1.00800000E+00  1.00800000E+00  1.00800000E+00  1.40100000E+01
  1.20100000E+01  1.20100000E+01  1.00800000E+00  1.00800000E+00  1.00800000E+00
  1.40100000E+01  1.20100000E+01  1.20100000E+01  1.00800000E+00  1.00800000E+00
  1.00800000E+00  1.40100000E+01  1.20100000E+01  1.20100000E+01  1.00800000E+00
  1.00800000E+00  1.00800000E+00  1.40100000E+01  1.20100000E+01  1.20100000E+01
  1.00800000E+00  1.00800000E+00  1.00800000E+00  1.40100000E+01  1.20100000E+01
  1.20100000E+01  1.00800000E+00  1.00800000E+00  1.00800000E+00  1.40100000E+01
  1.20100000E+01  1.20100000E+01  1.00800000E+00  1.00800000E+00  1.00800000E+00
  1.40100000E+01  1.20100000E+01  1.20100000E+01  1.00800000E+00  1.00800000E+00
  1.00800000E+00  1.40100000E+01  1.20100000E+01  1.20100000E+01  1.00800000E+00
  1.00800000E+00  1.00800000E+00  1.40100000E+01  1.20100000E+01  1.20100000E+01
  1.00800000E+00  1.00800000E+00  1.00800000E+00  1.40100000E+01  1.20100000E+01
  1.20100000E+01  1.00800000E+00  1.00800000E+00  1.00800000E+00  1.40100000E+01
  1.20100000E+01  1.20100000E+01  1.00800000E+00  1.00800000E+00  1.00800000E+00
  1.40100000E+01  1.20100000E+01  1.20100000E+01  1.00800000E+00  1.00800000E+00
  1.00800000E+00  1.40100000E+01  1.20100000E+01  1.20100000E+01  1.00800000E+00
  1.00800000E+00  1.00800000E+00  1.40100000E+01  1.20100000E+01  1.20100000E+01
  1.00800000E+00  1.00800000E+00  1.00800000E+00  1.40100000E+01  1.20100000E+01
  1.20100000E+01  1.00800000E+00  1.00800000E+00  1.00800000E+00  1.40100000E+01
  1.20100000E+01  1.20100000E+01  1.00800000E+00  1.00800000E+00  1.00800000E+00
  1.40100000E+01  1.20100000E+01  1.20100000E+01  1.00800000E+00  1.00800000E+00
  1.00800000E+00  1.40100000E+01  1.20100000E+01  1.20100000E+01  1.00800000E+00
  1.00800000E+00  1.00800000E+00  1.40100000E+01  1.20100000E+01  1.20100000E+01
  1.00800000E+00  1.00800000E+00  1.00800000E+00  1.40100000E+01  1.20100000E+01
  1.20100000E+01  1.00800000E+00  1.00800000E+00  1.00800000E+00  1.40100000E+01
  1.20100000E+01  1.20100000E+01  1.00800000E+00  1.00800000E+00  1.00800000E+00
  1.40100000E+01  1.20100000E+01  1.20100000E+01  1.00800000E+00  1.00800000E+00
  1.00800000E+00  1.40100000E+01  1.20100000E+01  1.20100000E+01  1.00800000E+00
  1.00800000E+00  1.00800000E+00  1.40100000E+01  1.20100000E+01  1.20100000E+01
  1.00800000E+00  1.00800000E+00  1.00800000E+00  1.40100000E+01  1.20100000E+01
  1.20100000E+01  1.00800000E+00  1.00800000E+00  1.00800000E+00  1.40100000E+01
  1.20100000E+01  1.20100000E+01  1.00800000E+00  1.00800000E+00  1.00800000E+00
  1.40100000E+01  1.20100000E+01  1.20100000E+01  1.00800000E+00  1.00800000E+00
  1.00800000E+00  1.40100000E+01  1.20100000E+01  1.20100000E+01  1.00800000E+00
  1.00800000E+00  1.00800000E+00  1.40100000E+01  1.20100000E+01  1.20100000E+01
  1.00800000E+00  1.00800000E+00  1.00800000E+00  1.40100000E+01  1.20100000E+01
  1.20100000E+01  1.00800000E+00  1.00800000E+00  1.00800000E+00  1.40100000E+01
  1.20100000E+01  1.20100000E+01  1.00800000E+00  1.00800000E+00  1.00800000E+00
  1.40100000E+01  1.20100000E+01  1.20100000E+01  1.00800000E+00  1.00800000E+00
  1.00800000E+00  1.40100000E+01  1.20100000E+01  1.20100000E+01  1.00800000E+00
  1.00800000E+00  1.00800000E+00  1.40100000E+01  1.20100000E+01  1.20100000E+01
  1.00800000E+00  1.00800000E+00  1.00800000E+00  1.40100000E+01  1.20100000E+01
  1.20100000E+01  1.00800000E+00  1.00800000E+00  1.00800000E+00  1.40100000E+01
  1.20100000E+01  1.20100000E+01  1.00800000E+00  1.00800000E+00  1.00800000E+00
  1.40100000E+01  1.20100000E+01  1.20100000E+01  1.00800000E+00  1.00800000E+00
  1.00800000E+00  1.40100000E+01  1.20100000E+01  1.20100000E+01  1.00800000E+00
  1.00800000E+00  1.00800000E+00  1.40100000E+01  1.20100000E+01  1.20100000E+01
  1.00800000E+00  1.00800000E+00  1.00800000E+00  1.40100000E+01  1.20100000E+01
  1.20100000E+01  1.00800000E+00  1.00800000E+00  1.00800000E+00  1.40100000E+01
  1.20100000E+01  1.20100000E+01  1.00800000E+00  1.00800000E+00  1.00800000E+00
  1.40100000E+01  1.20100000E+01  1.20100000E+01  1.00800000E+00  1.00800000E+00
  1.00800000E+00  1.40100000E+01  1.20100000E+01  1.20100000E+01  1.00800000E+00
  1.00800000E+00  1.00800000E+00  1.40100000E+01  1.20100000E+01  1.20100000E+01
  1.00800000E+00  1.00800000E+00  1.00800000E+00  1.40100000E+01  1.20100000E+01
  1.20100000E+01  1.00800000E+00  1.00800000E+00  1.00800000E+00  1.40100000E+01
  1.20100000E+01  1.20100000E+01  1.00800000E+00  1.00800000E+00  1.00800000E+00
  1.40100000E+01  1.20100000E+01  1.20100000E+01  1.00800000E+00  1.00800000E+00
  1.00800000E+00  1.40100000E+01  1.20100000E+01  1.20100000E+01  1.00800000E+00
  1.00800000E+00  1.00800000E+00  1.40100000E+01  1.20100000E+01  1.20100000E+01
  1.00800000E+00  1.00800000E+00  1.00800000E+00  1.40100000E+01  1.20100000E+01
  1.20100000E+01  1.00800000E+00  1.00800000E+00  1.00800000E+00  1.40100000E+01
  1.20100000E+01  1.20100000E+01  1.00800000E+00  1.00800000E+00  1.00800000E+00
  1.40100000E+01  1.20100000E+01  1.20100000E+01  1.00800000E+00  1.00800000E+00
  1.00800000E+00  1.40100000E+01  1.20100000E+01  1.20100000E+01  1.00800000E+00
  1.00800000E+00  1.00800000E+00  1.40100000E+01  1.20100000E+01  1.20100000E+01
  1.00800000E+00  1.00800000E+00  1.00800000E+00  1.40100000E+01  1.20100000E+01
  1.20100000E+01  1.00800000E+00  1.00800000E+00  1.00800000E+00  1.40100000E+01
  1.20100000E+01  1.20100000E+01  1.00800000E+00  1.00800000E+00  1.00800000E+00
%FLAG ATOM_TYPE_INDEX                                                           
%FORMAT(10I8)                                                                   
       1       1       1       1       2       2       3       3       3       3
       3       3       3       3       3       3       3       3       3       3
       3       3       3       3       3       3       3       3       3       3
       4       4       4       4       4       4       4       4       5       5
       6       7       8       9       9       9       6       7       8       9
       9       9       6       7       8       9       9       9       6       7
       8       9       9       9       6       7       8       9       9       9
       6       7       8       9       9       9       6       7       8       9
       9       9       6       7       8       9       9       9       6       7
       8       9       9       9       6       7       8       9       9       9
       6       7       8       9       9       9       6       7       8       9
       9       9       6       7       8       9       9       9       6       7
       8       9       9       9       6       7       8       9       9       9
       6       7       8       9       9       9       6       7       8       9
       9       9       6       7       8       9       9       9       6       7
       8       9       9       9       6       7       8       9       9       9
       6       7       8       9       9       9       6       7       8       9
       9       9       6       7       8       9       9       9       6       7
       8       9       9       9       6       7       8       9       9       9
       6       7       8       9       9       9       6       7       8       9
       9       9       6       7       8       9       9       9       6       7
       8       9       9       9       6       7       8       9       9       9
       6       7       8       9       9       9       6       7       8       9
       9       9       6       7       8       9       9       9       6       7
       8       9       9       9       6       7       8       9       9       9
       6       7       8       9       9       9       6       7       8       9
       9       9       6       7       8       9       9       9       6       7
       8       9       9       9       6       7       8       9       9       9
       6       7       8       9       9       9       6       7       8       9
       9       9       6       7       8       9       9       9       6       7
       8       9       9       9       6       7       8       9       9       9
       6       7       8       9       9       9       6       7       8       9
       9       9       6       7       8       9       9       9       6       7
       8       9       9       9       6       7       8       9       9       9
       6       7       8       9       9       9       6       7       8       9
       9       9       6       7       8       9       9       9       6       7
       8       9       9       9       6       7       8       9       9       9
       6       7       8       9       9       9       6       7       8       9
       9       9       6       7       8       9       9       9       6       7
       8       9       9       9       6       7       8       9       9       9
       6       7       8       9       9       9       6       7       8       9
       9       9       6       7       8       9       9       9       6       7
       8       9       9       9       6       7       8       9       9       9
       6       7       8       9       9       9       6       7       8       9
       9       9       6       7       8       9       9       9       6       7
       8       9       9       9       6       7       8       9       9       9
       6       7       8       9       9       9       6       7       8       9
       9       9       6       7       8       9       9       9       6       7
       8       9       9       9       6       7       8       9       9       9
       6       7       8       9       9       9       6       7       8       9
       9       9       6       7       8       9       9       9       6       7
       8       9       9       9       6       7       8       9       9       9
       6       7       8       9       9       9       6       7       8       9
       9       9       6       7       8       9       9       9       6       7
       8       9       9       9       6       7       8       9       9       9
       6       7       8       9       9       9       6       7       8       9
       9       9       6       7       8       9       9       9       6       7
       8       9       9       9       6       7       8       9       9       9
       6       7       8       9       9       9       6       7       8       9
       9       9       6       7       8       9       9       9       6       7
       8       9       9       9       6       7       8       9       9       9
       6       7       8       9       9       9       6       7       8       9
       9       9       6       7       8       9       9       9       6       7
       8       9       9       9       6       7       8       9       9       9
       6       7       8       9       9       9       6       7       8       9
       9       9       6       7       8       9       9       9       6       7
       8       9       9       9       6       7       8       9       9       9
       6       7       8       9       9       9       6       7       8       9
       9       9       6       7       8       9       9       9       6       7
       8       9       9       9       6       7       8       9       9       9
       6       7       8       9       9       9       6       7       8       9
       9       9       6       7       8       9       9       9       6       7
       8       9       9       9       6       7       8       9       9       9
       6       7       8       9       9       9       6       7       8       9
       9       9       6       7       8       9       9       9       6       7
       8       9       9       9       6       7       8       9       9       9
       6       7       8       9       9       9       6       7       8       9
       9       9       6       7       8       9       9       9       6       7
       8       9       9       9       6       7       8       9       9       9
       6       7       8       9       9       9       6       7       8       9
       9       9       6       7       8       9       9       9       6       7
       8       9       9       9       6       7       8       9       9       9
       6       7       8       9       9       9       6       7       8       9
       9       9       6       7       8       9       9       9       6       7
       8       9       9       9       6       7       8       9       9       9
       6       7       8       9       9       9       6       7       8       9
       9       9       6       7       8       9       9       9       6       7
       8       9       9       9       6       7       8       9       9       9
       6       7       8       9       9       9       6       7       8       9
       9       9       6       7       8       9       9       9       6       7
       8       9       9       9       6       7       8       9       9       9
       6       7       8       9       9       9       6       7       8       9
       9       9       6       7       8       9       9       9       6       7
       8       9       9       9       6       7       8       9       9       9
       6       7       8       9       9       9       6       7       8       9
       9       9       6       7       8       9       9       9       6       7
       8       9       9       9       6       7       8       9       9       9
       6       7       8       9       9       9       6       7       8       9
       9       9       6       7       8       9       9       9       6       7
       8       9       9       9       6       7       8       9       9       9
       6       7       8       9       9       9       6       7       8       9
       9       9       6       7       8       9       9       9       6       7
       8       9       9       9       6       7       8       9       9       9
       6       7       8       9       9       9       6       7       8       9
       9       9       6       7       8       9       9       9       6       7
       8       9       9       9       6       7       8       9       9       9
       6       7       8       9       9       9       6       7       8       9
       9       9       6       7       8       9       9       9       6       7
       8       9       9       9       6       7       8       9       9       9
       6       7       8       9       9       9       6       7       8       9
       9       9       6       7       8       9       9       9       6       7
       8       9       9       9       6       7       8       9       9       9
       6       7       8       9       9       9       6       7       8       9
       9       9       6       7       8       9       9       9       6       7
       8       9       9       9       6       7       8       9       9       9
       6       7       8       9       9       9       6       7       8       9
       9       9       6       7       8       9       9       9       6       7
       8       9       9       9       6       7       8       9       9       9
       6       7       8       9       9       9       6       7       8       9
       9       9       6       7       8       9       9       9       6       7
       8       9       9       9       6       7       8       9       9       9
       6       7       8       9       9       9       6       7       8       9
       9       9       6       7       8       9       9       9       6       7
       8       9       9       9       6       7       8       9       9       9
       6       7       8       9       9       9       6       7       8       9
       9       9       6       7       8       9       9       9       6       7
       8       9       9       9       6       7       8       9       9       9
       6       7       8       9       9       9       6       7       8       9
       9       9       6       7       8       9       9       9       6       7
       8       9       9       9       6       7       8       9       9       9
       6       7       8       9       9       9       6       7       8       9
       9       9       6       7       8       9       9       9       6       7
       8       9       9       9       6       7       8       9       9       9
       6       7       8       9       9       9       6       7       8       9
       9       9       6       7       8       9       9       9       6       7
       8       9       9       9       6       7       8       9       9       9
       6       7       8       9       9       9       6       7       8       9
       9       9       6       7       8       9       9       9       6       7
       8       9       9       9       6       7       8       9       9       9
       6       7       8       9       9       9       6       7       8       9
       9       9       6       7       8       9       9       9       6       7
       8       9       9       9       6       7       8       9       9       9
       6       7       8       9       9       9       6       7       8       9
       9       9       6       7       8       9       9       9       6       7
       8       9       9       9       6       7       8       9       9       9
       6       7       8       9       9       9       6       7       8       9
       9       9       6       7       8       9       9       9       6       7
       8       9       9       9       6       7       8       9       9       9
       6       7       8       9       9       9       6       7       8       9
       9       9       6       7       8       9       9       9       6       7
       8       9       9       9       6       7       8       9       9       9
       6       7       8       9       9       9       6       7       8       9
       9       9       6       7       8       9       9       9       6       7
       8       9       9       9       6       7       8       9       9       9
       6       7       8       9       9       9       6       7       8       9
       9       9       6       7       8       9       9       9       6       7
       8       9       9       9       6       7       8       9       9       9
       6       7       8       9       9       9       6       7       8       9
       9       9       6       7       8       9       9       9       6       7
       8       9       9       9       6       7       8       9       9       9
       6       7       8       9       9       9       6       7       8       9
       9       9       6       7       8       9       9       9       6       7
       8       9       9       9       6       7       8       9       9       9
       6       7       8       9       9       9       6       7       8       9
       9       9       6       7       8       9       9       9       6       7
       8       9       9       9       6       7       8       9       9       9
       6       7       8       9       9       9       6       7       8       9
       9       9       6       7       8       9       9       9       6       7
       8       9       9       9       6       7       8       9       9       9
       6       7       8       9       9       9       6       7       8       9
       9       9       6       7       8       9       9       9       6       7
       8       9       9       9       6       7       8       9       9       9
       6       7       8       9       9       9       6       7       8       9
       9       9       6       7       8       9       9       9       6       7
       8       9       9       9       6       7       8       9       9       9
       6       7       8       9       9       9       6       7       8       9
       9       9       6       7       8       9       9       9       6       7
       8       9       9       9       6       7       8       9       9       9
       6       7       8       9       9       9       6       7       8       9
       9       9       6       7       8       9       9       9       6       7
       8       9       9       9       6       7       8       9       9       9
       6       7       8       9       9       9       6       7       8       9
       9       9       6       7       8       9       9       9       6       7
       8       9       9       9       6       7       8       9       9       9
       6       7       8       9       9       9       6       7       8       9
       9       9       6       7       8       9       9       9       6       7
       8       9       9       9       6       7       8       9       9       9
       6       7       8       9       9       9       6       7       8       9
       9       9       6       7       8       9       9       9       6       7
       8       9       9       9       6       7       8       9       9       9
       6       7       8       9       9       9       6       7       8       9
       9       9       6       7       8       9       9       9       6       7
       8       9       9       9       6       7       8       9       9       9
       6       7       8       9       9       9       6       7       8       9
       9       9       6       7       8       9       9       9       6       7
       8       9       9       9       6       7       8       9       9       9
       6       7       8       9       9       9       6       7       8       9
       9       9       6       7       8       9       9       9       6       7
       8       9       9       9       6       7       8       9       9       9
       6       7       8       9       9       9       6       7       8       9
       9       9       6       7       8       9       9       9       6       7
       8       9       9       9       6       7       8       9       9       9
       6       7       8       9       9       9       6       7       8       9
       9       9       6       7       8       9       9       9       6       7
       8       9       9       9       6       7       8       9       9       9
       6       7       8       9       9       9       6       7       8       9
       9       9       6       7       8       9       9       9       6       7
       8       9       9       9       6       7       8       9       9       9
%FLAG NUMBER_EXCLUDED_ATOMS                                                     
%FORMAT(10I8)                                                                   
       7       7       7       7       8       8      18      17      15      14
      13      12      10      10       9       9       8       8       5       4
       5       4       3       3       3       3       3       3       2       2
       1       1       1       1       1       1       1       1       1       1
       5       4       3       2       1       1       5       4       3       2
       1       1       5       4       3       2       1       1       5       4
       3       2       1       1       5       4       3       2       1       1
       5       4       3       2       1       1       5       4       3       2
       1       1       5       4       3       2       1       1       5       4
       3       2       1       1       5       4       3       2       1       1
       5       4       3       2       1       1       5       4       3       2
       1       1       5       4       3       2       1       1       5       4
       3       2       1       1       5       4       3       2       1       1
       5       4       3       2       1       1       5       4       3       2
       1       1       5       4       3       2       1       1       5       4
       3       2       1       1       5       4       3       2       1       1
       5       4       3       2       1       1       5       4       3       2
       1       1       5       4       3       2       1       1       5       4
       3       2       1       1       5       4       3       2       1       1
       5       4       3       2       1       1       5       4       3       2
       1       1       5       4       3       2       1       1       5       4
       3       2       1       1       5       4       3       2       1       1
       5       4       3       2       1       1       5       4       3       2
       1       1       5       4       3       2       1       1       5       4
       3       2       1       1       5       4       3       2       1       1
       5       4       3       2       1       1       5       4       3       2
       1       1       5       4       3       2       1       1       5       4
       3       2       1       1       5       4       3       2       1       1
       5       4       3       2       1       1       5       4       3       2
       1       1       5       4       3       2       1       1       5       4
       3       2       1       1       5       4       3       2       1       1
       5       4       3       2       1       1       5       4       3       2
       1       1       5       4       3       2       1       1       5       4
       3       2       1       1       5       4       3       2       1       1
       5       4       3       2       1       1       5       4       3       2
       1       1       5       4       3       2       1       1       5       4
       3       2       1       1       5       4       3       2       1       1
       5       4       3       2       1       1       5       4       3       2
       1       1       5       4       3       2       1       1       5       4
       3       2       1       1       5       4       3       2       1       1
       5       4       3       2       1       1       5       4       3       2
       1       1       5       4       3       2       1       1       5       4
       3       2       1       1       5       4       3       2       1       1
       5       4       3       2       1       1       5       4       3       2
       1       1       5       4       3       2       1       1       5       4
       3       2       1       1       5       4       3       2       1       1
       5       4       3       2       1       1       5       4       3       2
       1       1       5       4       3       2       1       1       5       4
       3       2       1       1       5       4       3       2       1       1
       5       4       3       2       1       1       5       4       3       2
       1       1       5       4       3       2       1       1       5       4
       3       2       1       1       5       4       3       2       1       1
       5       4       3       2       1       1       5       4       3       2
       1       1       5       4       3       2       1       1       5       4
       3       2       1       1       5       4       3       2       1       1
       5       4       3       2       1       1       5       4       3       2
       1       1       5       4       3       2       1       1       5       4
       3       2       1       1       5       4       3       2       1       1
       5       4       3       2       1       1       5       4       3       2
       1       1       5       4       3       2       1       1       5       4
       3       2       1       1       5       4       3       2       1       1
       5       4       3       2       1       1       5       4       3       2
       1       1       5       4       3       2       1       1       5       4
       3       2       1       1       5       4       3       2       1       1
       5       4       3       2       1       1       5       4       3       2
       1       1       5       4       3       2       1       1       5       4
       3       2       1       1       5       4       3       2       1       1
       5       4       3       2       1       1       5       4       3       2
       1       1       5       4       3       2       1       1       5       4
       3       2       1       1       5       4       3       2       1       1
       5       4       3       2       1       1       5       4       3       2
       1       1       5       4       3       2       1       1       5       4
       3       2       1       1       5       4       3       2       1       1
       5       4       3       2       1       1       5       4       3       2
       1       1       5       4       3       2       1       1       5       4
       3       2       1       1       5       4       3       2       1       1
       5       4       3       2       1       1       5       4       3       2
       1       1       5       4       3       2       1       1       5       4
       3       2       1       1       5       4       3       2       1       1
       5       4       3       2       1       1       5       4       3       2
       1       1       5       4       3       2       1       1       5       4
       3       2       1       1       5       4       3       2       1       1
       5       4       3       2       1       1       5       4       3       2
       1       1       5       4       3       2       1       1       5       4
       3       2       1       1       5       4       3       2       1       1
       5       4       3       2       1       1       5       4       3       2
       1       1       5       4       3       2       1       1       5       4
       3       2       1       1       5       4       3       2       1       1
       5       4       3       2       1       1       5       4       3       2
       1       1       5       4       3       2       1       1       5       4
       3       2       1       1       5       4       3       2       1       1
       5       4       3       2       1       1       5       4       3       2
       1       1       5       4       3       2       1       1       5       4
       3       2       1       1       5       4       3       2       1       1
       5       4       3       2       1       1       5       4       3       2
       1       1       5       4       3       2       1       1       5       4
       3       2       1       1       5       4       3       2       1       1
       5       4       3       2       1       1       5       4       3       2
       1       1       5       4       3       2       1       1       5       4
       3       2       1       1       5       4       3       2       1       1
       5       4       3       2       1       1       5       4       3       2
       1       1       5       4       3       2       1       1       5       4
       3       2       1       1       5       4       3       2       1       1
       5       4       3       2       1       1       5       4       3       2
       1       1       5       4       3       2       1       1       5       4
       3       2       1       1       5       4       3       2       1       1
       5       4       3       2       1       1       5       4       3       2
       1       1       5       4       3       2       1       1       5       4
       3       2       1       1       5       4       3       2       1       1
       5       4       3       2       1       1       5       4       3       2
       1       1       5       4       3       2       1       1       5       4
       3       2       1       1       5       4       3       2       1       1
       5       4       3       2       1       1       5       4       3       2
       1       1       5       4       3       2       1       1       5       4
       3       2       1       1       5       4       3       2       1       1
       5       4       3       2       1       1       5       4       3       2
       1       1       5       4       3       2       1       1       5       4
       3       2       1       1       5       4       3       2       1       1
       5       4       3       2       1       1       5       4       3       2
       1       1       5       4       3       2       1       1       5       4
       3       2       1       1       5       4       3       2       1       1
       5       4       3       2       1       1       5       4       3       2
       1       1       5       4       3       2       1       1       5       4
       3       2       1       1       5       4       3       2       1       1
       5       4       3       2       1       1       5       4       3       2
       1       1       5       4       3       2       1       1       5       4
       3       2       1       1       5       4       3       2       1       1
       5       4       3       2       1       1       5       4       3       2
       1       1       5       4       3       2       1       1       5       4
       3       2       1       1       5       4       3       2       1       1
       5       4       3       2       1       1       5       4       3       2
       1       1       5       4       3       2       1       1       5       4
       3       2       1       1       5       4       3       2       1       1
       5       4       3       2       1       1       5       4       3       2
       1       1       5       4       3       2       1       1       5       4
       3       2       1       1       5       4       3       2       1       1
       5       4       3       2       1       1       5       4       3       2
       1       1       5       4       3       2       1       1       5       4
       3       2       1       1       5       4       3       2       1       1
       5       4       3       2       1       1       5       4       3       2
       1       1       5       4       3       2       1       1       5       4
       3       2       1       1       5       4       3       2       1       1
       5       4       3       2       1       1       5       4       3       2
       1       1       5       4       3       2       1       1       5       4
       3       2       1       1       5       4       3       2       1       1
       5       4       3       2       1       1       5       4       3       2
       1       1       5       4       3       2       1       1       5       4
       3       2       1       1       5       4       3       2       1       1
       5       4       3       2       1       1       5       4       3       2
       1       1       5       4       3       2       1       1       5       4
       3       2       1       1       5       4       3       2       1       1
       5       4       3       2       1       1       5       4       3       2
       1       1       5       4       3       2       1       1       5       4
       3       2       1       1       5       4       3       2       1       1
       5       4       3       2       1       1       5       4       3       2
       1       1       5       4       3       2       1       1       5       4
       3       2       1       1       5       4       3       2       1       1
       5       4       3       2       1       1       5       4       3       2
       1       1       5       4       3       2       1       1       5       4
       3       2       1       1       5       4       3       2       1       1
       5       4       3       2       1       1       5       4       3       2
       1       1       5       4       3       2       1       1       5       4
       3       2       1       1       5       4       3       2       1       1
       5       4       3       2       1       1       5       4       3       2
       1       1       5       4       3       2       1       1       5       4
       3       2       1       1       5       4       3       2       1       1
       5       4       3       2       1       1       5       4       3       2
       1       1       5       4       3       2       1       1       5       4
       3       2       1       1       5       4       3       2       1       1
       5       4       3       2       1       1       5       4       3       2
       1       1       5       4       3       2       1       1       5       4
       3       2       1       1       5       4       3       2       1       1
       5       4       3       2       1       1       5       4       3       2
       1       1       5       4       3       2       1       1       5       4
       3       2       1       1       5       4       3       2       1       1
       5       4       3       2       1       1       5       4       3       2
       1       1       5       4       3       2       1       1       5       4
       3       2       1       1       5       4       3       2       1       1
       5       4       3       2       1       1       5       4       3       2
       1       1       5       4       3       2       1       1       5       4
       3       2       1       1       5       4       3       2       1       1
       5       4       3       2       1       1       5       4       3       2
       1       1       5       4       3       2       1       1       5       4
       3       2       1       1       5       4       3       2       1       1
       5       4       3       2       1       1       5       4       3       2
       1       1       5       4       3       2       1       1       5       4
       3       2       1       1       5       4       3       2       1       1
       5       4       3       2       1       1       5       4       3       2
       1       1       5       4       3       2       1       1       5       4
       3       2       1       1       5       4       3       2       1       1
       5       4       3       2       1       1       5       4       3       2
       1       1       5       4       3       2       1       1       5       4
       3       2       1       1       5       4       3       2       1       1
       5       4       3       2       1       1       5       4       3       2
       1       1       5       4       3       2       1       1       5       4
       3       2       1       1       5       4       3       2       1       1
       5       4       3       2       1       1       5       4       3       2
       1       1       5       4       3       2       1       1       5       4
       3       2       1       1       5       4       3       2       1       1
       5       4       3       2       1       1       5       4       3       2
       1       1       5       4       3       2       1       1       5       4
       3       2       1       1       5       4       3       2       1       1
       5       4       3       2       1       1       5       4       3       2
       1       1       5       4       3       2       1       1       5       4
       3       2       1       1       5       4       3       2       1       1
       5       4       3       2       1       1       5       4       3       2
       1       1       5       4       3       2       1       1       5       4
       3       2       1       1       5       4       3       2       1       1
%FLAG NONBONDED_PARM_INDEX                                                      
%FORMAT(10I8)                                                                   
       1       2       4       7      11      16      22      29      37       2
       3       5       8      12      17      23      30      38       4       5
       6       9      13      18      24      31      39       7       8       9
      10      14      19      25      32      40      11      12      13      14
      15      20      26      33      41      16      17      18      19      20
      21      27      34      42      22      23      24      25      26      27
      28      35      43      29      30      31      32      33      34      35
      36      44      37      38      39      40      41      42      43      44
      45
%FLAG RESIDUE_LABEL                                                             
%FORMAT(20a4)                                                                   
PDI ACE ACE ACE ACE ACE ACE ACE ACE ACE ACE ACE ACE ACE ACE ACE ACE ACE ACE ACE 
ACE ACE ACE ACE ACE ACE ACE ACE ACE ACE ACE ACE ACE ACE ACE ACE ACE ACE ACE ACE 
ACE ACE ACE ACE ACE ACE ACE ACE ACE ACE ACE ACE ACE ACE ACE ACE ACE ACE ACE ACE 
ACE ACE ACE ACE ACE ACE ACE ACE ACE ACE ACE ACE ACE ACE ACE ACE ACE ACE ACE ACE 
ACE ACE ACE ACE ACE ACE ACE ACE ACE ACE ACE ACE ACE ACE ACE ACE ACE ACE ACE ACE 
ACE ACE ACE ACE ACE ACE ACE ACE ACE ACE ACE ACE ACE ACE ACE ACE ACE ACE ACE ACE 
ACE ACE ACE ACE ACE ACE ACE ACE ACE ACE ACE ACE ACE ACE ACE ACE ACE ACE ACE ACE 
ACE ACE ACE ACE ACE ACE ACE ACE ACE ACE ACE ACE ACE ACE ACE ACE ACE ACE ACE ACE 
ACE ACE ACE ACE ACE ACE ACE ACE ACE ACE ACE ACE ACE ACE ACE ACE ACE ACE ACE ACE 
ACE ACE ACE ACE ACE ACE ACE ACE ACE ACE ACE ACE ACE ACE ACE ACE ACE ACE ACE ACE 
ACE ACE ACE ACE ACE ACE ACE ACE ACE ACE ACE ACE ACE ACE ACE ACE ACE ACE ACE ACE 
ACE ACE ACE ACE ACE ACE ACE ACE ACE ACE ACE ACE ACE ACE ACE ACE ACE ACE ACE ACE 
ACE ACE ACE ACE ACE ACE ACE ACE ACE ACE ACE ACE ACE ACE ACE ACE ACE ACE ACE ACE 
ACE ACE ACE ACE ACE ACE ACE ACE ACE ACE ACE ACE ACE ACE ACE ACE ACE ACE ACE ACE 
ACE ACE ACE ACE ACE ACE ACE ACE ACE ACE ACE ACE ACE ACE ACE ACE ACE ACE ACE ACE 
ACE ACE ACE ACE ACE ACE ACE ACE ACE ACE ACE ACE ACE ACE ACE ACE ACE ACE ACE ACE 
ACE ACE ACE ACE ACE ACE ACE ACE ACE ACE ACE ACE ACE ACE ACE ACE ACE ACE ACE ACE 
ACE 
%FLAG RESIDUE_POINTER                                                           
%FORMAT(10I8)                                                                   
       1      41      47      53      59      65      71      77      83      89
      95     101     107     113     119     125     131     137     143     149
     155     161     167     173     179     185     191     197     203     209
     215     221     227     233     239     245     251     257     263     269
     275     281     287     293     299     305     311     317     323     329
     335     341     347     353     359     365     371     377     383     389
     395     401     407     413     419     425     431     437     443     449
     455     461     467     473     479     485     491     497     503     509
     515     521     527     533     539     545     551     557     563     569
     575     581     587     593     599     605     611     617     623     629
     635     641     647     653     659     665     671     677     683     689
     695     701     707     713     719     725     731     737     743     749
     755     761     767     773     779     785     791     797     803     809
     815     821     827     833     839     845     851     857     863     869
     875     881     887     893     899     905     911     917     923     929
     935     941     947     953     959     965     971     977     983     989
     995    1001    1007    1013    1019    1025    1031    1037    1043    1049
    1055    1061    1067    1073    1079    1085    1091    1097    1103    1109
    1115    1121    1127    1133    1139    1145    1151    1157    1163    1169
    1175    1181    1187    1193    1199    1205    1211    1217    1223    1229
    1235    1241    1247    1253    1259    1265    1271    1277    1283    1289
    1295    1301    1307    1313    1319    1325    1331    1337    1343    1349
    1355    1361    1367    1373    1379    1385    1391    1397    1403    1409
    1415    1421    1427    1433    1439    1445    1451    1457    1463    1469
    1475    1481    1487    1493    1499    1505    1511    1517    1523    1529
    1535    1541    1547    1553    1559    1565    1571    1577    1583    1589
    1595    1601    1607    1613    1619    1625    1631    1637    1643    1649
    1655    1661    1667    1673    1679    1685    1691    1697    1703    1709
    1715    1721    1727    1733    1739    1745    1751    1757    1763    1769
    1775    1781    1787    1793    1799    1805    1811    1817    1823    1829
    1835    1841    1847    1853    1859    1865    1871    1877    1883    1889
    1895    1901    1907    1913    1919    1925    1931    1937    1943    1949
    1955    1961    1967    1973    1979    1985    1991    1997    2003    2009
    2015    2021    2027    2033    2039    2045    2051    2057    2063    2069
    2075
%FLAG BOND_FORCE_CONSTANT                                                       
%FORMAT(5E16.8)                                                                 
  3.60690000E+02  3.54250000E+02  2.62840000E+02  3.36070000E+02  4.73590000E+02
  5.90600000E+02  2.84580000E+02  3.45250000E+02  7.51250000E+02
%FLAG BOND_EQUIL_VALUE                                                          
%FORMAT(5E16.8)                                                                 
  1.08600000E+00  1.39860000E+00  1.49070000E+00  1.37980000E+00  1.01320000E+00
  1.21900000E+00  1.46560000E+00  1.09620000E+00  1.16190000E+00
%FLAG ANGLE_FORCE_CONSTANT                                                      
%FORMAT(5E16.8)                                                                 
  5.73700000E+01  7.72200000E+01  6.14400000E+01  4.49000000E+01  6.36700000E+01
  6.70600000E+01  8.72100000E+01  7.79600000E+01  3.58000000E+01  4.51300000E+01
  5.74200000E+01
%FLAG ANGLE_EQUIL_VALUE                                                         
%FORMAT(5E16.8)                                                                 
  2.04657396E+00  2.23489507E+00  2.10015559E+00  2.09230160E+00  2.09474507E+00
  2.00870030E+00  2.14762857E+00  2.13977458E+00  1.88024401E+00  1.91026369E+00
  3.11820658E+00
%FLAG DIHEDRAL_FORCE_CONSTANT                                                   
%FORMAT(5E16.8)                                                                 
  3.62500000E+00  2.50000000E+00  2.12250000E+00  2.00000000E+00  5.80000000E-01
  0.00000000E+00  1.05000000E+01  1.10000000E+00
%FLAG DIHEDRAL_PERIODICITY                                                      
%FORMAT(5E16.8)                                                                 
  2.00000000E+00  2.00000000E+00  2.00000000E+00  1.00000000E+00  2.00000000E+00
  2.00000000E+00  2.00000000E+00  2.00000000E+00
%FLAG DIHEDRAL_PHASE                                                            
%FORMAT(5E16.8)                                                                 
  3.14159400E+00  3.14159400E+00  3.14159400E+00  0.00000000E+00  3.14159400E+00
  3.14159400E+00  3.14159400E+00  3.14159400E+00
%FLAG SCEE_SCALE_FACTOR                                                         
%FORMAT(5E16.8)                                                                 
  1.20000000E+00  1.20000000E+00  1.20000000E+00  1.20000000E+00  1.20000000E+00
  1.20000000E+00  0.00000000E+00  0.00000000E+00
%FLAG SCNB_SCALE_FACTOR                                                         
%FORMAT(5E16.8)                                                                 
  2.00000000E+00  2.00000000E+00  2.00000000E+00  2.00000000E+00  2.00000000E+00
  2.00000000E+00  0.00000000E+00  0.00000000E+00
%FLAG SOLTY                                                                     
%FORMAT(5E16.8)                                                                 
  0.00000000E+00  0.00000000E+00  0.00000000E+00  0.00000000E+00  0.00000000E+00
  0.00000000E+00  0.00000000E+00  0.00000000E+00  0.00000000E+00  0.00000000E+00
%FLAG LENNARD_JONES_ACOEF                                                       
%FORMAT(5E16.8)                                                                 
  3.76435470E+05  5.17814271E+05  7.01825028E+05  5.17507491E+05  6.99381362E+05
  6.96551276E+05  5.27277400E+04  7.48403283E+04  7.52549148E+04  6.90855956E+03
  9.87857350E+02  1.65195713E+03  1.71458823E+03  9.04434904E+01  1.34728399E-01
  5.04173226E+05  6.83179716E+05  6.80770393E+05  7.29041169E+04  1.61327254E+03
  6.65027384E+05  6.30925504E+05  8.48258258E+05  8.43969952E+05  9.27554496E+04
  2.23577481E+03  8.25619280E+05  1.02073671E+06  8.92208123E+05  1.19359607E+06
  1.18640578E+06  1.32549375E+05  3.37137075E+03  1.16165080E+06  1.43239677E+06
  2.00671338E+06  5.68021765E+04  8.07866982E+04  8.12662403E+04  7.41026906E+03
  9.47421632E+01  7.86991059E+04  1.00235148E+05  1.43334551E+05  7.94617769E+03
%FLAG LENNARD_JONES_BCOEF                                                       
%FORMAT(5E16.8)                                                                 
  4.69350655E+02  5.21008860E+02  5.74088001E+02  4.98871431E+02  5.48900066E+02
  5.24668528E+02  1.01173582E+02  1.14083104E+02  1.09570372E+02  2.10929191E+01
  1.22938581E+01  1.50468782E+01  1.46824710E+01  2.14252117E+00  7.34107347E-02
  5.05570298E+02  5.57012686E+02  5.32561965E+02  1.10729433E+02  1.46229317E+01
  5.40444287E+02  5.62969425E+02  6.17825399E+02  5.90251928E+02  1.24325688E+02
  1.71355763E+01  5.99411656E+02  6.63431737E+02  7.38469198E+02  8.08414196E+02
  7.71958727E+02  1.63939471E+02  2.32108730E+01  7.84289859E+02  8.66911122E+02
  1.13185062E+03  1.11953944E+02  1.26366740E+02  1.21392023E+02  2.32899892E+01
  2.33785449E+00  1.22653886E+02  1.37787728E+02  1.81752124E+02  2.57122925E+01
%FLAG BONDS_INC_HYDROGEN                                                        
%FORMAT(10I8)                                                                   
      75     111       1      72     108       1      69     105       1      66
     102       1      63      99       1      60      96       1      57      93
       1      54      90       1      15     117       5      12     114       5
     123     129       8     123     132       8     123     135       8     141
     147       8     141     150       8     141     153       8     159     165
       8     159     168       8     159     171       8     177     183       8
     177     186       8     177     189       8     195     201       8     195
     204       8     195     207       8     213     219       8     213     222
       8     213     225       8     231     237       8     231     240       8
     231     243       8     249     255       8     249     258       8     249
     261       8     267     273       8     267     276       8     267     279
       8     285     291       8     285     294       8     285     297       8
     303     309       8     303     312       8     303     315       8     321
     327       8     321     330       8     321     333       8     339     345
       8     339     348       8     339     351       8     357     363       8
     357     366       8     357     369       8     375     381       8     375
     384       8     375     387       8     393     399       8     393     402
       8     393     405       8     411     417       8     411     420       8
     411     423       8     429     435       8     429     438       8     429
     441       8     447     453       8     447     456       8     447     459
       8     465     471       8     465     474       8     465     477       8
     483     489       8     483     492       8     483     495       8     501
     507       8     501     510       8     501     513       8     519     525
       8     519     528       8     519     531       8     537     543       8
     537     546       8     537     549       8     555     561       8     555
     564       8     555     567       8     573     579       8     573     582
       8     573     585       8     591     597       8     591     600       8
     591     603       8     609     615       8     609     618       8     609
     621       8     627     633       8     627     636       8     627     639
       8     645     651       8     645     654       8     645     657       8
     663     669       8     663     672       8     663     675       8     681
     687       8     681     690       8     681     693       8     699     705
       8     699     708       8     699     711       8     717     723       8
     717     726       8     717     729       8     735     741       8     735
     744       8     735     747       8     753     759       8     753     762
       8     753     765       8     771     777       8     771     780       8
     771     783       8     789     795       8     789     798       8     789
     801       8     807     813       8     807     816       8     807     819
       8     825     831       8     825     834       8     825     837       8
     843     849       8     843     852       8     843     855       8     861
     867       8     861     870       8     861     873       8     879     885
       8     879     888       8     879     891       8     897     903       8
     897     906       8     897     909       8     915     921       8     915
     924       8     915     927       8     933     939       8     933     942
       8     933     945       8     951     957       8     951     960       8
     951     963       8     969     975       8     969     978       8     969
     981       8     987     993       8     987     996       8     987     999
       8    1005    1011       8    1005    1014       8    1005    1017       8
    1023    1029       8    1023    1032       8    1023    1035       8    1041
    1047       8    1041    1050       8    1041    1053       8    1059    1065
       8    1059    1068       8    1059    1071       8    1077    1083       8
    1077    1086       8    1077    1089       8    1095    1101       8    1095
    1104       8    1095    1107       8    1113    1119       8    1113    1122
       8    1113    1125       8    1131    1137       8    1131    1140       8
    1131    1143       8    1149    1155       8    1149    1158       8    1149
    1161       8    1167    1173       8    1167    1176       8    1167    1179
       8    1185    1191       8    1185    1194       8    1185    1197       8
    1203    1209       8    1203    1212       8    1203    1215       8    1221
    1227       8    1221    1230       8    1221    1233       8    1239    1245
       8    1239    1248       8    1239    1251       8    1257    1263       8
    1257    1266       8    1257    1269       8    1275    1281       8    1275
    1284       8    1275    1287       8    1293    1299       8    1293    1302
       8    1293    1305       8    1311    1317       8    1311    1320       8
    1311    1323       8    1329    1335       8    1329    1338       8    1329
    1341       8    1347    1353       8    1347    1356       8    1347    1359
       8    1365    1371       8    1365    1374       8    1365    1377       8
    1383    1389       8    1383    1392       8    1383    1395       8    1401
    1407       8    1401    1410       8    1401    1413       8    1419    1425
       8    1419    1428       8    1419    1431       8    1437    1443       8
    1437    1446       8    1437    1449       8    1455    1461       8    1455
    1464       8    1455    1467       8    1473    1479       8    1473    1482
       8    1473    1485       8    1491    1497       8    1491    1500       8
    1491    1503       8    1509    1515       8    1509    1518       8    1509
    1521       8    1527    1533       8    1527    1536       8    1527    1539
       8    1545    1551       8    1545    1554       8    1545    1557       8
    1563    1569       8    1563    1572       8    1563    1575       8    1581
    1587       8    1581    1590       8    1581    1593       8    1599    1605
       8    1599    1608       8    1599    1611       8    1617    1623       8
    1617    1626       8    1617    1629       8    1635    1641       8    1635
    1644       8    1635    1647       8    1653    1659       8    1653    1662
       8    1653    1665       8    1671    1677       8    1671    1680       8
    1671    1683       8    1689    1695       8    1689    1698       8    1689
    1701       8    1707    1713       8    1707    1716       8    1707    1719
       8    1725    1731       8    1725    1734       8    1725    1737       8
    1743    1749       8    1743    1752       8    1743    1755       8    1761
    1767       8    1761    1770       8    1761    1773       8    1779    1785
       8    1779    1788       8    1779    1791       8    1797    1803       8
    1797    1806       8    1797    1809       8    1815    1821       8    1815
    1824       8    1815    1827       8    1833    1839       8    1833    1842
       8    1833    1845       8    1851    1857       8    1851    1860       8
    1851    1863       8    1869    1875       8    1869    1878       8    1869
    1881       8    1887    1893       8    1887    1896       8    1887    1899
       8    1905    1911       8    1905    1914       8    1905    1917       8
    1923    1929       8    1923    1932       8    1923    1935       8    1941
    1947       8    1941    1950       8    1941    1953       8    1959    1965
       8    1959    1968       8    1959    1971       8    1977    1983       8
    1977    1986       8    1977    1989       8    1995    2001       8    1995
    2004       8    1995    2007       8    2013    2019       8    2013    2022
       8    2013    2025       8    2031    2037       8    2031    2040       8
    2031    2043       8    2049    2055       8    2049    2058       8    2049
    2061       8    2067    2073       8    2067    2076       8    2067    2079
       8    2085    2091       8    2085    2094       8    2085    2097       8
    2103    2109       8    2103    2112       8    2103    2115       8    2121
    2127       8    2121    2130       8    2121    2133       8    2139    2145
       8    2139    2148       8    2139    2151       8    2157    2163       8
    2157    2166       8    2157    2169       8    2175    2181       8    2175
    2184       8    2175    2187       8    2193    2199       8    2193    2202
       8    2193    2205       8    2211    2217       8    2211    2220       8
    2211    2223       8    2229    2235       8    2229    2238       8    2229
    2241       8    2247    2253       8    2247    2256       8    2247    2259
       8    2265    2271       8    2265    2274       8    2265    2277       8
    2283    2289       8    2283    2292       8    2283    2295       8    2301
    2307       8    2301    2310       8    2301    2313       8    2319    2325
       8    2319    2328       8    2319    2331       8    2337    2343       8
    2337    2346       8    2337    2349       8    2355    2361       8    2355
    2364       8    2355    2367       8    2373    2379       8    2373    2382
       8    2373    2385       8    2391    2397       8    2391    2400       8
    2391    2403       8    2409    2415       8    2409    2418       8    2409
    2421       8    2427    2433       8    2427    2436       8    2427    2439
       8    2445    2451       8    2445    2454       8    2445    2457       8
    2463    2469       8    2463    2472       8    2463    2475       8    2481
    2487       8    2481    2490       8    2481    2493       8    2499    2505
       8    2499    2508       8    2499    2511       8    2517    2523       8
    2517    2526       8    2517    2529       8    2535    2541       8    2535
    2544       8    2535    2547       8    2553    2559       8    2553    2562
       8    2553    2565       8    2571    2577       8    2571    2580       8
    2571    2583       8    2589    2595       8    2589    2598       8    2589
    2601       8    2607    2613       8    2607    2616       8    2607    2619
       8    2625    2631       8    2625    2634       8    2625    2637       8
    2643    2649       8    2643    2652       8    2643    2655       8    2661
    2667       8    2661    2670       8    2661    2673       8    2679    2685
       8    2679    2688       8    2679    2691       8    2697    2703       8
    2697    2706       8    2697    2709       8    2715    2721       8    2715
    2724       8    2715    2727       8    2733    2739       8    2733    2742
       8    2733    2745       8    2751    2757       8    2751    2760       8
    2751    2763       8    2769    2775       8    2769    2778       8    2769
    2781       8    2787    2793       8    2787    2796       8    2787    2799
       8    2805    2811       8    2805    2814       8    2805    2817       8
    2823    2829       8    2823    2832       8    2823    2835       8    2841
    2847       8    2841    2850       8    2841    2853       8    2859    2865
       8    2859    2868       8    2859    2871       8    2877    2883       8
    2877    2886       8    2877    2889       8    2895    2901       8    2895
    2904       8    2895    2907       8    2913    2919       8    2913    2922
       8    2913    2925       8    2931    2937       8    2931    2940       8
    2931    2943       8    2949    2955       8    2949    2958       8    2949
    2961       8    2967    2973       8    2967    2976       8    2967    2979
       8    2985    2991       8    2985    2994       8    2985    2997       8
    3003    3009       8    3003    3012       8    3003    3015       8    3021
    3027       8    3021    3030       8    3021    3033       8    3039    3045
       8    3039    3048       8    3039    3051       8    3057    3063       8
    3057    3066       8    3057    3069       8    3075    3081       8    3075
    3084       8    3075    3087       8    3093    3099       8    3093    3102
       8    3093    3105       8    3111    3117       8    3111    3120       8
    3111    3123       8    3129    3135       8    3129    3138       8    3129
    3141       8    3147    3153       8    3147    3156       8    3147    3159
       8    3165    3171       8    3165    3174       8    3165    3177       8
    3183    3189       8    3183    3192       8    3183    3195       8    3201
    3207       8    3201    3210       8    3201    3213       8    3219    3225
       8    3219    3228       8    3219    3231       8    3237    3243       8
    3237    3246       8    3237    3249       8    3255    3261       8    3255
    3264       8    3255    3267       8    3273    3279       8    3273    3282
       8    3273    3285       8    3291    3297       8    3291    3300       8
    3291    3303       8    3309    3315       8    3309    3318       8    3309
    3321       8    3327    3333       8    3327    3336       8    3327    3339
       8    3345    3351       8    3345    3354       8    3345    3357       8
    3363    3369       8    3363    3372       8    3363    3375       8    3381
    3387       8    3381    3390       8    3381    3393       8    3399    3405
       8    3399    3408       8    3399    3411       8    3417    3423       8
    3417    3426       8    3417    3429       8    3435    3441       8    3435
    3444       8    3435    3447       8    3453    3459       8    3453    3462
       8    3453    3465       8    3471    3477       8    3471    3480       8
    3471    3483       8    3489    3495       8    3489    3498       8    3489
    3501       8    3507    3513       8    3507    3516       8    3507    3519
       8    3525    3531       8    3525    3534       8    3525    3537       8
    3543    3549       8    3543    3552       8    3543    3555       8    3561
    3567       8    3561    3570       8    3561    3573       8    3579    3585
       8    3579    3588       8    3579    3591       8    3597    3603       8
    3597    3606       8    3597    3609       8    3615    3621       8    3615
    3624       8    3615    3627       8    3633    3639       8    3633    3642
       8    3633    3645       8    3651    3657       8    3651    3660       8
    3651    3663       8    3669    3675       8    3669    3678       8    3669
    3681       8    3687    3693       8    3687    3696       8    3687    3699
       8    3705    3711       8    3705    3714       8    3705    3717       8
    3723    3729       8    3723    3732       8    3723    3735       8    3741
    3747       8    3741    3750       8    3741    3753       8    3759    3765
       8    3759    3768       8    3759    3771       8    3777    3783       8
    3777    3786       8    3777    3789       8    3795    3801       8    3795
    3804       8    3795    3807       8    3813    3819       8    3813    3822
       8    3813    3825       8    3831    3837       8    3831    3840       8
    3831    3843       8    3849    3855       8    3849    3858       8    3849
    3861       8    3867    3873       8    3867    3876       8    3867    3879
       8    3885    3891       8    3885    3894       8    3885    3897       8
    3903    3909       8    3903    3912       8    3903    3915       8    3921
    3927       8    3921    3930       8    3921    3933       8    3939    3945
       8    3939    3948       8    3939    3951       8    3957    3963       8
    3957    3966       8    3957    3969       8    3975    3981       8    3975
    3984       8    3975    3987       8    3993    3999       8    3993    4002
       8    3993    4005       8    4011    4017       8    4011    4020       8
    4011    4023       8    4029    4035       8    4029    4038       8    4029
    4041       8    4047    4053       8    4047    4056       8    4047    4059
       8    4065    4071       8    4065    4074       8    4065    4077       8
    4083    4089       8    4083    4092       8    4083    4095       8    4101
    4107       8    4101    4110       8    4101    4113       8    4119    4125
       8    4119    4128       8    4119    4131       8    4137    4143       8
    4137    4146       8    4137    4149       8    4155    4161       8    4155
    4164       8    4155    4167       8    4173    4179       8    4173    4182
       8    4173    4185       8    4191    4197       8    4191    4200       8
    4191    4203       8    4209    4215       8    4209    4218       8    4209
    4221       8    4227    4233       8    4227    4236       8    4227    4239
       8    4245    4251       8    4245    4254       8    4245    4257       8
    4263    4269       8    4263    4272       8    4263    4275       8    4281
    4287       8    4281    4290       8    4281    4293       8    4299    4305
       8    4299    4308       8    4299    4311       8    4317    4323       8
    4317    4326       8    4317    4329       8    4335    4341       8    4335
    4344       8    4335    4347       8    4353    4359       8    4353    4362
       8    4353    4365       8    4371    4377       8    4371    4380       8
    4371    4383       8    4389    4395       8    4389    4398       8    4389
    4401       8    4407    4413       8    4407    4416       8    4407    4419
       8    4425    4431       8    4425    4434       8    4425    4437       8
    4443    4449       8    4443    4452       8    4443    4455       8    4461
    4467       8    4461    4470       8    4461    4473       8    4479    4485
       8    4479    4488       8    4479    4491       8    4497    4503       8
    4497    4506       8    4497    4509       8    4515    4521       8    4515
    4524       8    4515    4527       8    4533    4539       8    4533    4542
       8    4533    4545       8    4551    4557       8    4551    4560       8
    4551    4563       8    4569    4575       8    4569    4578       8    4569
    4581       8    4587    4593       8    4587    4596       8    4587    4599
       8    4605    4611       8    4605    4614       8    4605    4617       8
    4623    4629       8    4623    4632       8    4623    4635       8    4641
    4647       8    4641    4650       8    4641    4653       8    4659    4665
       8    4659    4668       8    4659    4671       8    4677    4683       8
    4677    4686       8    4677    4689       8    4695    4701       8    4695
    4704       8    4695    4707       8    4713    4719       8    4713    4722
       8    4713    4725       8    4731    4737       8    4731    4740       8
    4731    4743       8    4749    4755       8    4749    4758       8    4749
    4761       8    4767    4773       8    4767    4776       8    4767    4779
       8    4785    4791       8    4785    4794       8    4785    4797       8
    4803    4809       8    4803    4812       8    4803    4815       8    4821
    4827       8    4821    4830       8    4821    4833       8    4839    4845
       8    4839    4848       8    4839    4851       8    4857    4863       8
    4857    4866       8    4857    4869       8    4875    4881       8    4875
    4884       8    4875    4887       8    4893    4899       8    4893    4902
       8    4893    4905       8    4911    4917       8    4911    4920       8
    4911    4923       8    4929    4935       8    4929    4938       8    4929
    4941       8    4947    4953       8    4947    4956       8    4947    4959
       8    4965    4971       8    4965    4974       8    4965    4977       8
    4983    4989       8    4983    4992       8    4983    4995       8    5001
    5007       8    5001    5010       8    5001    5013       8    5019    5025
       8    5019    5028       8    5019    5031       8    5037    5043       8
    5037    5046       8    5037    5049       8    5055    5061       8    5055
    5064       8    5055    5067       8    5073    5079       8    5073    5082
       8    5073    5085       8    5091    5097       8    5091    5100       8
    5091    5103       8    5109    5115       8    5109    5118       8    5109
    5121       8    5127    5133       8    5127    5136       8    5127    5139
       8    5145    5151       8    5145    5154       8    5145    5157       8
    5163    5169       8    5163    5172       8    5163    5175       8    5181
    5187       8    5181    5190       8    5181    5193       8    5199    5205
       8    5199    5208       8    5199    5211       8    5217    5223       8
    5217    5226       8    5217    5229       8    5235    5241       8    5235
    5244       8    5235    5247       8    5253    5259       8    5253    5262
       8    5253    5265       8    5271    5277       8    5271    5280       8
    5271    5283       8    5289    5295       8    5289    5298       8    5289
    5301       8    5307    5313       8    5307    5316       8    5307    5319
       8    5325    5331       8    5325    5334       8    5325    5337       8
    5343    5349       8    5343    5352       8    5343    5355       8    5361
    5367       8    5361    5370       8    5361    5373       8    5379    5385
       8    5379    5388       8    5379    5391       8    5397    5403       8
    5397    5406       8    5397    5409       8    5415    5421       8    5415
    5424       8    5415    5427       8    5433    5439       8    5433    5442
       8    5433    5445       8    5451    5457       8    5451    5460       8
    5451    5463       8    5469    5475       8    5469    5478       8    5469
    5481       8    5487    5493       8    5487    5496       8    5487    5499
       8    5505    5511       8    5505    5514       8    5505    5517       8
    5523    5529       8    5523    5532       8    5523    5535       8    5541
    5547       8    5541    5550       8    5541    5553       8    5559    5565
       8    5559    5568       8    5559    5571       8    5577    5583       8
    5577    5586       8    5577    5589       8    5595    5601       8    5595
    5604       8    5595    5607       8    5613    5619       8    5613    5622
       8    5613    5625       8    5631    5637       8    5631    5640       8
    5631    5643       8    5649    5655       8    5649    5658       8    5649
    5661       8    5667    5673       8    5667    5676       8    5667    5679
       8    5685    5691       8    5685    5694       8    5685    5697       8
    5703    5709       8    5703    5712       8    5703    5715       8    5721
    5727       8    5721    5730       8    5721    5733       8    5739    5745
       8    5739    5748       8    5739    5751       8    5757    5763       8
    5757    5766       8    5757    5769       8    5775    5781       8    5775
    5784       8    5775    5787       8    5793    5799       8    5793    5802
       8    5793    5805       8    5811    5817       8    5811    5820       8
    5811    5823       8    5829    5835       8    5829    5838       8    5829
    5841       8    5847    5853       8    5847    5856       8    5847    5859
       8    5865    5871       8    5865    5874       8    5865    5877       8
    5883    5889       8    5883    5892       8    5883    5895       8    5901
    5907       8    5901    5910       8    5901    5913       8    5919    5925
       8    5919    5928       8    5919    5931       8    5937    5943       8
    5937    5946       8    5937    5949       8    5955    5961       8    5955
    5964       8    5955    5967       8    5973    5979       8    5973    5982
       8    5973    5985       8    5991    5997       8    5991    6000       8
    5991    6003       8    6009    6015       8    6009    6018       8    6009
    6021       8    6027    6033       8    6027    6036       8    6027    6039
       8    6045    6051       8    6045    6054       8    6045    6057       8
    6063    6069       8    6063    6072       8    6063    6075       8    6081
    6087       8    6081    6090       8    6081    6093       8    6099    6105
       8    6099    6108       8    6099    6111       8    6117    6123       8
    6117    6126       8    6117    6129       8    6135    6141       8    6135
    6144       8    6135    6147       8    6153    6159       8    6153    6162
       8    6153    6165       8    6171    6177       8    6171    6180       8
    6171    6183       8    6189    6195       8    6189    6198       8    6189
    6201       8    6207    6213       8    6207    6216       8    6207    6219
       8    6225    6231       8    6225    6234       8    6225    6237       8
%FLAG BONDS_WITHOUT_HYDROGEN                                                    
%FORMAT(10I8)                                                                   
      63      75       2      60      72       2      57      69       2      54
      66       2      51      75       2      51      87       3      48      72
       2      48      84       3      45      69       2      45      81       3
      42      66       2      42      78       3      39      45       2      39
      51       2      36      42       2      36      48       2      33      63
       2      30      33       2      30      60       2      27      57       2
      24      27       2      24      54       2      21      27       2      21
      33       2      21      39       2      18      24       2      18      30
       2      18      36       2      15      81       4      15      87       4
      12      78       4      12      84       4       9      87       6       6
      84       6       3      81       6       0      78       6     123     126
       7     120     126       9     141     144       7     138     144       9
     159     162       7     156     162       9     177     180       7     174
     180       9     195     198       7     192     198       9     213     216
       7     210     216       9     231     234       7     228     234       9
     249     252       7     246     252       9     267     270       7     264
     270       9     285     288       7     282     288       9     303     306
       7     300     306       9     321     324       7     318     324       9
     339     342       7     336     342       9     357     360       7     354
     360       9     375     378       7     372     378       9     393     396
       7     390     396       9     411     414       7     408     414       9
     429     432       7     426     432       9     447     450       7     444
     450       9     465     468       7     462     468       9     483     486
       7     480     486       9     501     504       7     498     504       9
     519     522       7     516     522       9     537     540       7     534
     540       9     555     558       7     552     558       9     573     576
       7     570     576       9     591     594       7     588     594       9
     609     612       7     606     612       9     627     630       7     624
     630       9     645     648       7     642     648       9     663     666
       7     660     666       9     681     684       7     678     684       9
     699     702       7     696     702       9     717     720       7     714
     720       9     735     738       7     732     738       9     753     756
       7     750     756       9     771     774       7     768     774       9
     789     792       7     786     792       9     807     810       7     804
     810       9     825     828       7     822     828       9     843     846
       7     840     846       9     861     864       7     858     864       9
     879     882       7     876     882       9     897     900       7     894
     900       9     915     918       7     912     918       9     933     936
       7     930     936       9     951     954       7     948     954       9
     969     972       7     966     972       9     987     990       7     984
     990       9    1005    1008       7    1002    1008       9    1023    1026
       7    1020    1026       9    1041    1044       7    1038    1044       9
    1059    1062       7    1056    1062       9    1077    1080       7    1074
    1080       9    1095    1098       7    1092    1098       9    1113    1116
       7    1110    1116       9    1131    1134       7    1128    1134       9
    1149    1152       7    1146    1152       9    1167    1170       7    1164
    1170       9    1185    1188       7    1182    1188       9    1203    1206
       7    1200    1206       9    1221    1224       7    1218    1224       9
    1239    1242       7    1236    1242       9    1257    1260       7    1254
    1260       9    1275    1278       7    1272    1278       9    1293    1296
       7    1290    1296       9    1311    1314       7    1308    1314       9
    1329    1332       7    1326    1332       9    1347    1350       7    1344
    1350       9    1365    1368       7    1362    1368       9    1383    1386
       7    1380    1386       9    1401    1404       7    1398    1404       9
    1419    1422       7    1416    1422       9    1437    1440       7    1434
    1440       9    1455    1458       7    1452    1458       9    1473    1476
       7    1470    1476       9    1491    1494       7    1488    1494       9
    1509    1512       7    1506    1512       9    1527    1530       7    1524
    1530       9    1545    1548       7    1542    1548       9    1563    1566
       7    1560    1566       9    1581    1584       7    1578    1584       9
    1599    1602       7    1596    1602       9    1617    1620       7    1614
    1620       9    1635    1638       7    1632    1638       9    1653    1656
       7    1650    1656       9    1671    1674       7    1668    1674       9
    1689    1692       7    1686    1692       9    1707    1710       7    1704
    1710       9    1725    1728       7    1722    1728       9    1743    1746
       7    1740    1746       9    1761    1764       7    1758    1764       9
    1779    1782       7    1776    1782       9    1797    1800       7    1794
    1800       9    1815    1818       7    1812    1818       9    1833    1836
       7    1830    1836       9    1851    1854       7    1848    1854       9
    1869    1872       7    1866    1872       9    1887    1890       7    1884
    1890       9    1905    1908       7    1902    1908       9    1923    1926
       7    1920    1926       9    1941    1944       7    1938    1944       9
    1959    1962       7    1956    1962       9    1977    1980       7    1974
    1980       9    1995    1998       7    1992    1998       9    2013    2016
       7    2010    2016       9    2031    2034       7    2028    2034       9
    2049    2052       7    2046    2052       9    2067    2070       7    2064
    2070       9    2085    2088       7    2082    2088       9    2103    2106
       7    2100    2106       9    2121    2124       7    2118    2124       9
    2139    2142       7    2136    2142       9    2157    2160       7    2154
    2160       9    2175    2178       7    2172    2178       9    2193    2196
       7    2190    2196       9    2211    2214       7    2208    2214       9
    2229    2232       7    2226    2232       9    2247    2250       7    2244
    2250       9    2265    2268       7    2262    2268       9    2283    2286
       7    2280    2286       9    2301    2304       7    2298    2304       9
    2319    2322       7    2316    2322       9    2337    2340       7    2334
    2340       9    2355    2358       7    2352    2358       9    2373    2376
       7    2370    2376       9    2391    2394       7    2388    2394       9
    2409    2412       7    2406    2412       9    2427    2430       7    2424
    2430       9    2445    2448       7    2442    2448       9    2463    2466
       7    2460    2466       9    2481    2484       7    2478    2484       9
    2499    2502       7    2496    2502       9    2517    2520       7    2514
    2520       9    2535    2538       7    2532    2538       9    2553    2556
       7    2550    2556       9    2571    2574       7    2568    2574       9
    2589    2592       7    2586    2592       9    2607    2610       7    2604
    2610       9    2625    2628       7    2622    2628       9    2643    2646
       7    2640    2646       9    2661    2664       7    2658    2664       9
    2679    2682       7    2676    2682       9    2697    2700       7    2694
    2700       9    2715    2718       7    2712    2718       9    2733    2736
       7    2730    2736       9    2751    2754       7    2748    2754       9
    2769    2772       7    2766    2772       9    2787    2790       7    2784
    2790       9    2805    2808       7    2802    2808       9    2823    2826
       7    2820    2826       9    2841    2844       7    2838    2844       9
    2859    2862       7    2856    2862       9    2877    2880       7    2874
    2880       9    2895    2898       7    2892    2898       9    2913    2916
       7    2910    2916       9    2931    2934       7    2928    2934       9
    2949    2952       7    2946    2952       9    2967    2970       7    2964
    2970       9    2985    2988       7    2982    2988       9    3003    3006
       7    3000    3006       9    3021    3024       7    3018    3024       9
    3039    3042       7    3036    3042       9    3057    3060       7    3054
    3060       9    3075    3078       7    3072    3078       9    3093    3096
       7    3090    3096       9    3111    3114       7    3108    3114       9
    3129    3132       7    3126    3132       9    3147    3150       7    3144
    3150       9    3165    3168       7    3162    3168       9    3183    3186
       7    3180    3186       9    3201    3204       7    3198    3204       9
    3219    3222       7    3216    3222       9    3237    3240       7    3234
    3240       9    3255    3258       7    3252    3258       9    3273    3276
       7    3270    3276       9    3291    3294       7    3288    3294       9
    3309    3312       7    3306    3312       9    3327    3330       7    3324
    3330       9    3345    3348       7    3342    3348       9    3363    3366
       7    3360    3366       9    3381    3384       7    3378    3384       9
    3399    3402       7    3396    3402       9    3417    3420       7    3414
    3420       9    3435    3438       7    3432    3438       9    3453    3456
       7    3450    3456       9    3471    3474       7    3468    3474       9
    3489    3492       7    3486    3492       9    3507    3510       7    3504
    3510       9    3525    3528       7    3522    3528       9    3543    3546
       7    3540    3546       9    3561    3564       7    3558    3564       9
    3579    3582       7    3576    3582       9    3597    3600       7    3594
    3600       9    3615    3618       7    3612    3618       9    3633    3636
       7    3630    3636       9    3651    3654       7    3648    3654       9
    3669    3672       7    3666    3672       9    3687    3690       7    3684
    3690       9    3705    3708       7    3702    3708       9    3723    3726
       7    3720    3726       9    3741    3744       7    3738    3744       9
    3759    3762       7    3756    3762       9    3777    3780       7    3774
    3780       9    3795    3798       7    3792    3798       9    3813    3816
       7    3810    3816       9    3831    3834       7    3828    3834       9
    3849    3852       7    3846    3852       9    3867    3870       7    3864
    3870       9    3885    3888       7    3882    3888       9    3903    3906
       7    3900    3906       9    3921    3924       7    3918    3924       9
    3939    3942       7    3936    3942       9    3957    3960       7    3954
    3960       9    3975    3978       7    3972    3978       9    3993    3996
       7    3990    3996       9    4011    4014       7    4008    4014       9
    4029    4032       7    4026    4032       9    4047    4050       7    4044
    4050       9    4065    4068       7    4062    4068       9    4083    4086
       7    4080    4086       9    4101    4104       7    4098    4104       9
    4119    4122       7    4116    4122       9    4137    4140       7    4134
    4140       9    4155    4158       7    4152    4158       9    4173    4176
       7    4170    4176       9    4191    4194       7    4188    4194       9
    4209    4212       7    4206    4212       9    4227    4230       7    4224
    4230       9    4245    4248       7    4242    4248       9    4263    4266
       7    4260    4266       9    4281    4284       7    4278    4284       9
    4299    4302       7    4296    4302       9    4317    4320       7    4314
    4320       9    4335    4338       7    4332    4338       9    4353    4356
       7    4350    4356       9    4371    4374       7    4368    4374       9
    4389    4392       7    4386    4392       9    4407    4410       7    4404
    4410       9    4425    4428       7    4422    4428       9    4443    4446
       7    4440    4446       9    4461    4464       7    4458    4464       9
    4479    4482       7    4476    4482       9    4497    4500       7    4494
    4500       9    4515    4518       7    4512    4518       9    4533    4536
       7    4530    4536       9    4551    4554       7    4548    4554       9
    4569    4572       7    4566    4572       9    4587    4590       7    4584
    4590       9    4605    4608       7    4602    4608       9    4623    4626
       7    4620    4626       9    4641    4644       7    4638    4644       9
    4659    4662       7    4656    4662       9    4677    4680       7    4674
    4680       9    4695    4698       7    4692    4698       9    4713    4716
       7    4710    4716       9    4731    4734       7    4728    4734       9
    4749    4752       7    4746    4752       9    4767    4770       7    4764
    4770       9    4785    4788       7    4782    4788       9    4803    4806
       7    4800    4806       9    4821    4824       7    4818    4824       9
    4839    4842       7    4836    4842       9    4857    4860       7    4854
    4860       9    4875    4878       7    4872    4878       9    4893    4896
       7    4890    4896       9    4911    4914       7    4908    4914       9
    4929    4932       7    4926    4932       9    4947    4950       7    4944
    4950       9    4965    4968       7    4962    4968       9    4983    4986
       7    4980    4986       9    5001    5004       7    4998    5004       9
    5019    5022       7    5016    5022       9    5037    5040       7    5034
    5040       9    5055    5058       7    5052    5058       9    5073    5076
       7    5070    5076       9    5091    5094       7    5088    5094       9
    5109    5112       7    5106    5112       9    5127    5130       7    5124
    5130       9    5145    5148       7    5142    5148       9    5163    5166
       7    5160    5166       9    5181    5184       7    5178    5184       9
    5199    5202       7    5196    5202       9    5217    5220       7    5214
    5220       9    5235    5238       7    5232    5238       9    5253    5256
       7    5250    5256       9    5271    5274       7    5268    5274       9
    5289    5292       7    5286    5292       9    5307    5310       7    5304
    5310       9    5325    5328       7    5322    5328       9    5343    5346
       7    5340    5346       9    5361    5364       7    5358    5364       9
    5379    5382       7    5376    5382       9    5397    5400       7    5394
    5400       9    5415    5418       7    5412    5418       9    5433    5436
       7    5430    5436       9    5451    5454       7    5448    5454       9
    5469    5472       7    5466    5472       9    5487    5490       7    5484
    5490       9    5505    5508       7    5502    5508       9    5523    5526
       7    5520    5526       9    5541    5544       7    5538    5544       9
    5559    5562       7    5556    5562       9    5577    5580       7    5574
    5580       9    5595    5598       7    5592    5598       9    5613    5616
       7    5610    5616       9    5631    5634       7    5628    5634       9
    5649    5652       7    5646    5652       9    5667    5670       7    5664
    5670       9    5685    5688       7    5682    5688       9    5703    5706
       7    5700    5706       9    5721    5724       7    5718    5724       9
    5739    5742       7    5736    5742       9    5757    5760       7    5754
    5760       9    5775    5778       7    5772    5778       9    5793    5796
       7    5790    5796       9    5811    5814       7    5808    5814       9
    5829    5832       7    5826    5832       9    5847    5850       7    5844
    5850       9    5865    5868       7    5862    5868       9    5883    5886
       7    5880    5886       9    5901    5904       7    5898    5904       9
    5919    5922       7    5916    5922       9    5937    5940       7    5934
    5940       9    5955    5958       7    5952    5958       9    5973    5976
       7    5970    5976       9    5991    5994       7    5988    5994       9
    6009    6012       7    6006    6012       9    6027    6030       7    6024
    6030       9    6045    6048       7    6042    6048       9    6063    6066
       7    6060    6066       9    6081    6084       7    6078    6084       9
    6099    6102       7    6096    6102       9    6117    6120       7    6114
    6120       9    6135    6138       7    6132    6138       9    6153    6156
       7    6150    6156       9    6171    6174       7    6168    6174       9
    6189    6192       7    6186    6192       9    6207    6210       7    6204
    6210       9    6225    6228       7    6222    6228       9
%FLAG ANGLES_INC_HYDROGEN                                                       
%FORMAT(10I8)                                                                   
      87      15     117       1      84      12     114       1      81      15
     117       1      78      12     114       1      75      63      99       4
      72      60      96       4      69      57      93       4      66      54
      90       4      63      75     111       4      60      72     108       4
      57      69     105       4      54      66     102       4      51      75
     111       4      48      72     108       4      45      69     105       4
      42      66     102       4      33      63      99       4      30      60
      96       4      27      57      93       4      24      54      90       4
     132     123     135       9     129     123     132       9     129     123
     135       9     126     123     129      10     126     123     132      10
     126     123     135      10     150     141     153       9     147     141
     150       9     147     141     153       9     144     141     147      10
     144     141     150      10     144     141     153      10     168     159
     171       9     165     159     168       9     165     159     171       9
     162     159     165      10     162     159     168      10     162     159
     171      10     186     177     189       9     183     177     186       9
     183     177     189       9     180     177     183      10     180     177
     186      10     180     177     189      10     204     195     207       9
     201     195     204       9     201     195     207       9     198     195
     201      10     198     195     204      10     198     195     207      10
     222     213     225       9     219     213     222       9     219     213
     225       9     216     213     219      10     216     213     222      10
     216     213     225      10     240     231     243       9     237     231
     240       9     237     231     243       9     234     231     237      10
     234     231     240      10     234     231     243      10     258     249
     261       9     255     249     258       9     255     249     261       9
     252     249     255      10     252     249     258      10     252     249
     261      10     276     267     279       9     273     267     276       9
     273     267     279       9     270     267     273      10     270     267
     276      10     270     267     279      10     294     285     297       9
     291     285     294       9     291     285     297       9     288     285
     291      10     288     285     294      10     288     285     297      10
     312     303     315       9     309     303     312       9     309     303
     315       9     306     303     309      10     306     303     312      10
     306     303     315      10     330     321     333       9     327     321
     330       9     327     321     333       9     324     321     327      10
     324     321     330      10     324     321     333      10     348     339
     351       9     345     339     348       9     345     339     351       9
     342     339     345      10     342     339     348      10     342     339
     351      10     366     357     369       9     363     357     366       9
     363     357     369       9     360     357     363      10     360     357
     366      10     360     357     369      10     384     375     387       9
     381     375     384       9     381     375     387       9     378     375
     381      10     378     375     384      10     378     375     387      10
     402     393     405       9     399     393     402       9     399     393
     405       9     396     393     399      10     396     393     402      10
     396     393     405      10     420     411     423       9     417     411
     420       9     417     411     423       9     414     411     417      10
     414     411     420      10     414     411     423      10     438     429
     441       9     435     429     438       9     435     429     441       9
     432     429     435      10     432     429     438      10     432     429
     441      10     456     447     459       9     453     447     456       9
     453     447     459       9     450     447     453      10     450     447
     456      10     450     447     459      10     474     465     477       9
     471     465     474       9     471     465     477       9     468     465
     471      10     468     465     474      10     468     465     477      10
     492     483     495       9     489     483     492       9     489     483
     495       9     486     483     489      10     486     483     492      10
     486     483     495      10     510     501     513       9     507     501
     510       9     507     501     513       9     504     501     507      10
     504     501     510      10     504     501     513      10     528     519
     531       9     525     519     528       9     525     519     531       9
     522     519     525      10     522     519     528      10     522     519
     531      10     546     537     549       9     543     537     546       9
     543     537     549       9     540     537     543      10     540     537
     546      10     540     537     549      10     564     555     567       9
     561     555     564       9     561     555     567       9     558     555
     561      10     558     555     564      10     558     555     567      10
     582     573     585       9     579     573     582       9     579     573
     585       9     576     573     579      10     576     573     582      10
     576     573     585      10     600     591     603       9     597     591
     600       9     597     591     603       9     594     591     597      10
     594     591     600      10     594     591     603      10     618     609
     621       9     615     609     618       9     615     609     621       9
     612     609     615      10     612     609     618      10     612     609
     621      10     636     627     639       9     633     627     636       9
     633     627     639       9     630     627     633      10     630     627
     636      10     630     627     639      10     654     645     657       9
     651     645     654       9     651     645     657       9     648     645
     651      10     648     645     654      10     648     645     657      10
     672     663     675       9     669     663     672       9     669     663
     675       9     666     663     669      10     666     663     672      10
     666     663     675      10     690     681     693       9     687     681
     690       9     687     681     693       9     684     681     687      10
     684     681     690      10     684     681     693      10     708     699
     711       9     705     699     708       9     705     699     711       9
     702     699     705      10     702     699     708      10     702     699
     711      10     726     717     729       9     723     717     726       9
     723     717     729       9     720     717     723      10     720     717
     726      10     720     717     729      10     744     735     747       9
     741     735     744       9     741     735     747       9     738     735
     741      10     738     735     744      10     738     735     747      10
     762     753     765       9     759     753     762       9     759     753
     765       9     756     753     759      10     756     753     762      10
     756     753     765      10     780     771     783       9     777     771
     780       9     777     771     783       9     774     771     777      10
     774     771     780      10     774     771     783      10     798     789
     801       9     795     789     798       9     795     789     801       9
     792     789     795      10     792     789     798      10     792     789
     801      10     816     807     819       9     813     807     816       9
     813     807     819       9     810     807     813      10     810     807
     816      10     810     807     819      10     834     825     837       9
     831     825     834       9     831     825     837       9     828     825
     831      10     828     825     834      10     828     825     837      10
     852     843     855       9     849     843     852       9     849     843
     855       9     846     843     849      10     846     843     852      10
     846     843     855      10     870     861     873       9     867     861
     870       9     867     861     873       9     864     861     867      10
     864     861     870      10     864     861     873      10     888     879
     891       9     885     879     888       9     885     879     891       9
     882     879     885      10     882     879     888      10     882     879
     891      10     906     897     909       9     903     897     906       9
     903     897     909       9     900     897     903      10     900     897
     906      10     900     897     909      10     924     915     927       9
     921     915     924       9     921     915     927       9     918     915
     921      10     918     915     924      10     918     915     927      10
     942     933     945       9     939     933     942       9     939     933
     945       9     936     933     939      10     936     933     942      10
     936     933     945      10     960     951     963       9     957     951
     960       9     957     951     963       9     954     951     957      10
     954     951     960      10     954     951     963      10     978     969
     981       9     975     969     978       9     975     969     981       9
     972     969     975      10     972     969     978      10     972     969
     981      10     996     987     999       9     993     987     996       9
     993     987     999       9     990     987     993      10     990     987
     996      10     990     987     999      10    1014    1005    1017       9
    1011    1005    1014       9    1011    1005    1017       9    1008    1005
    1011      10    1008    1005    1014      10    1008    1005    1017      10
    1032    1023    1035       9    1029    1023    1032       9    1029    1023
    1035       9    1026    1023    1029      10    1026    1023    1032      10
    1026    1023    1035      10    1050    1041    1053       9    1047    1041
    1050       9    1047    1041    1053       9    1044    1041    1047      10
    1044    1041    1050      10    1044    1041    1053      10    1068    1059
    1071       9    1065    1059    1068       9    1065    1059    1071       9
    1062    1059    1065      10    1062    1059    1068      10    1062    1059
    1071      10    1086    1077    1089       9    1083    1077    1086       9
    1083    1077    1089       9    1080    1077    1083      10    1080    1077
    1086      10    1080    1077    1089      10    1104    1095    1107       9
    1101    1095    1104       9    1101    1095    1107       9    1098    1095
    1101      10    1098    1095    1104      10    1098    1095    1107      10
    1122    1113    1125       9    1119    1113    1122       9    1119    1113
    1125       9    1116    1113    1119      10    1116    1113    1122      10
    1116    1113    1125      10    1140    1131    1143       9    1137    1131
    1140       9    1137    1131    1143       9    1134    1131    1137      10
    1134    1131    1140      10    1134    1131    1143      10    1158    1149
    1161       9    1155    1149    1158       9    1155    1149    1161       9
    1152    1149    1155      10    1152    1149    1158      10    1152    1149
    1161      10    1176    1167    1179       9    1173    1167    1176       9
    1173    1167    1179       9    1170    1167    1173      10    1170    1167
    1176      10    1170    1167    1179      10    1194    1185    1197       9
    1191    1185    1194       9    1191    1185    1197       9    1188    1185
    1191      10    1188    1185    1194      10    1188    1185    1197      10
    1212    1203    1215       9    1209    1203    1212       9    1209    1203
    1215       9    1206    1203    1209      10    1206    1203    1212      10
    1206    1203    1215      10    1230    1221    1233       9    1227    1221
    1230       9    1227    1221    1233       9    1224    1221    1227      10
    1224    1221    1230      10    1224    1221    1233      10    1248    1239
    1251       9    1245    1239    1248       9    1245    1239    1251       9
    1242    1239    1245      10    1242    1239    1248      10    1242    1239
    1251      10    1266    1257    1269       9    1263    1257    1266       9
    1263    1257    1269       9    1260    1257    1263      10    1260    1257
    1266      10    1260    1257    1269      10    1284    1275    1287       9
    1281    1275    1284       9    1281    1275    1287       9    1278    1275
    1281      10    1278    1275    1284      10    1278    1275    1287      10
    1302    1293    1305       9    1299    1293    1302       9    1299    1293
    1305       9    1296    1293    1299      10    1296    1293    1302      10
    1296    1293    1305      10    1320    1311    1323       9    1317    1311
    1320       9    1317    1311    1323       9    1314    1311    1317      10
    1314    1311    1320      10    1314    1311    1323      10    1338    1329
    1341       9    1335    1329    1338       9    1335    1329    1341       9
    1332    1329    1335      10    1332    1329    1338      10    1332    1329
    1341      10    1356    1347    1359       9    1353    1347    1356       9
    1353    1347    1359       9    1350    1347    1353      10    1350    1347
    1356      10    1350    1347    1359      10    1374    1365    1377       9
    1371    1365    1374       9    1371    1365    1377       9    1368    1365
    1371      10    1368    1365    1374      10    1368    1365    1377      10
    1392    1383    1395       9    1389    1383    1392       9    1389    1383
    1395       9    1386    1383    1389      10    1386    1383    1392      10
    1386    1383    1395      10    1410    1401    1413       9    1407    1401
    1410       9    1407    1401    1413       9    1404    1401    1407      10
    1404    1401    1410      10    1404    1401    1413      10    1428    1419
    1431       9    1425    1419    1428       9    1425    1419    1431       9
    1422    1419    1425      10    1422    1419    1428      10    1422    1419
    1431      10    1446    1437    1449       9    1443    1437    1446       9
    1443    1437    1449       9    1440    1437    1443      10    1440    1437
    1446      10    1440    1437    1449      10    1464    1455    1467       9
    1461    1455    1464       9    1461    1455    1467       9    1458    1455
    1461      10    1458    1455    1464      10    1458    1455    1467      10
    1482    1473    1485       9    1479    1473    1482       9    1479    1473
    1485       9    1476    1473    1479      10    1476    1473    1482      10
    1476    1473    1485      10    1500    1491    1503       9    1497    1491
    1500       9    1497    1491    1503       9    1494    1491    1497      10
    1494    1491    1500      10    1494    1491    1503      10    1518    1509
    1521       9    1515    1509    1518       9    1515    1509    1521       9
    1512    1509    1515      10    1512    1509    1518      10    1512    1509
    1521      10    1536    1527    1539       9    1533    1527    1536       9
    1533    1527    1539       9    1530    1527    1533      10    1530    1527
    1536      10    1530    1527    1539      10    1554    1545    1557       9
    1551    1545    1554       9    1551    1545    1557       9    1548    1545
    1551      10    1548    1545    1554      10    1548    1545    1557      10
    1572    1563    1575       9    1569    1563    1572       9    1569    1563
    1575       9    1566    1563    1569      10    1566    1563    1572      10
    1566    1563    1575      10    1590    1581    1593       9    1587    1581
    1590       9    1587    1581    1593       9    1584    1581    1587      10
    1584    1581    1590      10    1584    1581    1593      10    1608    1599
    1611       9    1605    1599    1608       9    1605    1599    1611       9
    1602    1599    1605      10    1602    1599    1608      10    1602    1599
    1611      10    1626    1617    1629       9    1623    1617    1626       9
    1623    1617    1629       9    1620    1617    1623      10    1620    1617
    1626      10    1620    1617    1629      10    1644    1635    1647       9
    1641    1635    1644       9    1641    1635    1647       9    1638    1635
    1641      10    1638    1635    1644      10    1638    1635    1647      10
    1662    1653    1665       9    1659    1653    1662       9    1659    1653
    1665       9    1656    1653    1659      10    1656    1653    1662      10
    1656    1653    1665      10    1680    1671    1683       9    1677    1671
    1680       9    1677    1671    1683       9    1674    1671    1677      10
    1674    1671    1680      10    1674    1671    1683      10    1698    1689
    1701       9    1695    1689    1698       9    1695    1689    1701       9
    1692    1689    1695      10    1692    1689    1698      10    1692    1689
    1701      10    1716    1707    1719       9    1713    1707    1716       9
    1713    1707    1719       9    1710    1707    1713      10    1710    1707
    1716      10    1710    1707    1719      10    1734    1725    1737       9
    1731    1725    1734       9    1731    1725    1737       9    1728    1725
    1731      10    1728    1725    1734      10    1728    1725    1737      10
    1752    1743    1755       9    1749    1743    1752       9    1749    1743
    1755       9    1746    1743    1749      10    1746    1743    1752      10
    1746    1743    1755      10    1770    1761    1773       9    1767    1761
    1770       9    1767    1761    1773       9    1764    1761    1767      10
    1764    1761    1770      10    1764    1761    1773      10    1788    1779
    1791       9    1785    1779    1788       9    1785    1779    1791       9
    1782    1779    1785      10    1782    1779    1788      10    1782    1779
    1791      10    1806    1797    1809       9    1803    1797    1806       9
    1803    1797    1809       9    1800    1797    1803      10    1800    1797
    1806      10    1800    1797    1809      10    1824    1815    1827       9
    1821    1815    1824       9    1821    1815    1827       9    1818    1815
    1821      10    1818    1815    1824      10    1818    1815    1827      10
    1842    1833    1845       9    1839    1833    1842       9    1839    1833
    1845       9    1836    1833    1839      10    1836    1833    1842      10
    1836    1833    1845      10    1860    1851    1863       9    1857    1851
    1860       9    1857    1851    1863       9    1854    1851    1857      10
    1854    1851    1860      10    1854    1851    1863      10    1878    1869
    1881       9    1875    1869    1878       9    1875    1869    1881       9
    1872    1869    1875      10    1872    1869    1878      10    1872    1869
    1881      10    1896    1887    1899       9    1893    1887    1896       9
    1893    1887    1899       9    1890    1887    1893      10    1890    1887
    1896      10    1890    1887    1899      10    1914    1905    1917       9
    1911    1905    1914       9    1911    1905    1917       9    1908    1905
    1911      10    1908    1905    1914      10    1908    1905    1917      10
    1932    1923    1935       9    1929    1923    1932       9    1929    1923
    1935       9    1926    1923    1929      10    1926    1923    1932      10
    1926    1923    1935      10    1950    1941    1953       9    1947    1941
    1950       9    1947    1941    1953       9    1944    1941    1947      10
    1944    1941    1950      10    1944    1941    1953      10    1968    1959
    1971       9    1965    1959    1968       9    1965    1959    1971       9
    1962    1959    1965      10    1962    1959    1968      10    1962    1959
    1971      10    1986    1977    1989       9    1983    1977    1986       9
    1983    1977    1989       9    1980    1977    1983      10    1980    1977
    1986      10    1980    1977    1989      10    2004    1995    2007       9
    2001    1995    2004       9    2001    1995    2007       9    1998    1995
    2001      10    1998    1995    2004      10    1998    1995    2007      10
    2022    2013    2025       9    2019    2013    2022       9    2019    2013
    2025       9    2016    2013    2019      10    2016    2013    2022      10
    2016    2013    2025      10    2040    2031    2043       9    2037    2031
    2040       9    2037    2031    2043       9    2034    2031    2037      10
    2034    2031    2040      10    2034    2031    2043      10    2058    2049
    2061       9    2055    2049    2058       9    2055    2049    2061       9
    2052    2049    2055      10    2052    2049    2058      10    2052    2049
    2061      10    2076    2067    2079       9    2073    2067    2076       9
    2073    2067    2079       9    2070    2067    2073      10    2070    2067
    2076      10    2070    2067    2079      10    2094    2085    2097       9
    2091    2085    2094       9    2091    2085    2097       9    2088    2085
    2091      10    2088    2085    2094      10    2088    2085    2097      10
    2112    2103    2115       9    2109    2103    2112       9    2109    2103
    2115       9    2106    2103    2109      10    2106    2103    2112      10
    2106    2103    2115      10    2130    2121    2133       9    2127    2121
    2130       9    2127    2121    2133       9    2124    2121    2127      10
    2124    2121    2130      10    2124    2121    2133      10    2148    2139
    2151       9    2145    2139    2148       9    2145    2139    2151       9
    2142    2139    2145      10    2142    2139    2148      10    2142    2139
    2151      10    2166    2157    2169       9    2163    2157    2166       9
    2163    2157    2169       9    2160    2157    2163      10    2160    2157
    2166      10    2160    2157    2169      10    2184    2175    2187       9
    2181    2175    2184       9    2181    2175    2187       9    2178    2175
    2181      10    2178    2175    2184      10    2178    2175    2187      10
    2202    2193    2205       9    2199    2193    2202       9    2199    2193
    2205       9    2196    2193    2199      10    2196    2193    2202      10
    2196    2193    2205      10    2220    2211    2223       9    2217    2211
    2220       9    2217    2211    2223       9    2214    2211    2217      10
    2214    2211    2220      10    2214    2211    2223      10    2238    2229
    2241       9    2235    2229    2238       9    2235    2229    2241       9
    2232    2229    2235      10    2232    2229    2238      10    2232    2229
    2241      10    2256    2247    2259       9    2253    2247    2256       9
    2253    2247    2259       9    2250    2247    2253      10    2250    2247
    2256      10    2250    2247    2259      10    2274    2265    2277       9
    2271    2265    2274       9    2271    2265    2277       9    2268    2265
    2271      10    2268    2265    2274      10    2268    2265    2277      10
    2292    2283    2295       9    2289    2283    2292       9    2289    2283
    2295       9    2286    2283    2289      10    2286    2283    2292      10
    2286    2283    2295      10    2310    2301    2313       9    2307    2301
    2310       9    2307    2301    2313       9    2304    2301    2307      10
    2304    2301    2310      10    2304    2301    2313      10    2328    2319
    2331       9    2325    2319    2328       9    2325    2319    2331       9
    2322    2319    2325      10    2322    2319    2328      10    2322    2319
    2331      10    2346    2337    2349       9    2343    2337    2346       9
    2343    2337    2349       9    2340    2337    2343      10    2340    2337
    2346      10    2340    2337    2349      10    2364    2355    2367       9
    2361    2355    2364       9    2361    2355    2367       9    2358    2355
    2361      10    2358    2355    2364      10    2358    2355    2367      10
    2382    2373    2385       9    2379    2373    2382       9    2379    2373
    2385       9    2376    2373    2379      10    2376    2373    2382      10
    2376    2373    2385      10    2400    2391    2403       9    2397    2391
    2400       9    2397    2391    2403       9    2394    2391    2397      10
    2394    2391    2400      10    2394    2391    2403      10    2418    2409
    2421       9    2415    2409    2418       9    2415    2409    2421       9
    2412    2409    2415      10    2412    2409    2418      10    2412    2409
    2421      10    2436    2427    2439       9    2433    2427    2436       9
    2433    2427    2439       9    2430    2427    2433      10    2430    2427
    2436      10    2430    2427    2439      10    2454    2445    2457       9
    2451    2445    2454       9    2451    2445    2457       9    2448    2445
    2451      10    2448    2445    2454      10    2448    2445    2457      10
    2472    2463    2475       9    2469    2463    2472       9    2469    2463
    2475       9    2466    2463    2469      10    2466    2463    2472      10
    2466    2463    2475      10    2490    2481    2493       9    2487    2481
    2490       9    2487    2481    2493       9    2484    2481    2487      10
    2484    2481    2490      10    2484    2481    2493      10    2508    2499
    2511       9    2505    2499    2508       9    2505    2499    2511       9
    2502    2499    2505      10    2502    2499    2508      10    2502    2499
    2511      10    2526    2517    2529       9    2523    2517    2526       9
    2523    2517    2529       9    2520    2517    2523      10    2520    2517
    2526      10    2520    2517    2529      10    2544    2535    2547       9
    2541    2535    2544       9    2541    2535    2547       9    2538    2535
    2541      10    2538    2535    2544      10    2538    2535    2547      10
    2562    2553    2565       9    2559    2553    2562       9    2559    2553
    2565       9    2556    2553    2559      10    2556    2553    2562      10
    2556    2553    2565      10    2580    2571    2583       9    2577    2571
    2580       9    2577    2571    2583       9    2574    2571    2577      10
    2574    2571    2580      10    2574    2571    2583      10    2598    2589
    2601       9    2595    2589    2598       9    2595    2589    2601       9
    2592    2589    2595      10    2592    2589    2598      10    2592    2589
    2601      10    2616    2607    2619       9    2613    2607    2616       9
    2613    2607    2619       9    2610    2607    2613      10    2610    2607
    2616      10    2610    2607    2619      10    2634    2625    2637       9
    2631    2625    2634       9    2631    2625    2637       9    2628    2625
    2631      10    2628    2625    2634      10    2628    2625    2637      10
    2652    2643    2655       9    2649    2643    2652       9    2649    2643
    2655       9    2646    2643    2649      10    2646    2643    2652      10
    2646    2643    2655      10    2670    2661    2673       9    2667    2661
    2670       9    2667    2661    2673       9    2664    2661    2667      10
    2664    2661    2670      10    2664    2661    2673      10    2688    2679
    2691       9    2685    2679    2688       9    2685    2679    2691       9
    2682    2679    2685      10    2682    2679    2688      10    2682    2679
    2691      10    2706    2697    2709       9    2703    2697    2706       9
    2703    2697    2709       9    2700    2697    2703      10    2700    2697
    2706      10    2700    2697    2709      10    2724    2715    2727       9
    2721    2715    2724       9    2721    2715    2727       9    2718    2715
    2721      10    2718    2715    2724      10    2718    2715    2727      10
    2742    2733    2745       9    2739    2733    2742       9    2739    2733
    2745       9    2736    2733    2739      10    2736    2733    2742      10
    2736    2733    2745      10    2760    2751    2763       9    2757    2751
    2760       9    2757    2751    2763       9    2754    2751    2757      10
    2754    2751    2760      10    2754    2751    2763      10    2778    2769
    2781       9    2775    2769    2778       9    2775    2769    2781       9
    2772    2769    2775      10    2772    2769    2778      10    2772    2769
    2781      10    2796    2787    2799       9    2793    2787    2796       9
    2793    2787    2799       9    2790    2787    2793      10    2790    2787
    2796      10    2790    2787    2799      10    2814    2805    2817       9
    2811    2805    2814       9    2811    2805    2817       9    2808    2805
    2811      10    2808    2805    2814      10    2808    2805    2817      10
    2832    2823    2835       9    2829    2823    2832       9    2829    2823
    2835       9    2826    2823    2829      10    2826    2823    2832      10
    2826    2823    2835      10    2850    2841    2853       9    2847    2841
    2850       9    2847    2841    2853       9    2844    2841    2847      10
    2844    2841    2850      10    2844    2841    2853      10    2868    2859
    2871       9    2865    2859    2868       9    2865    2859    2871       9
    2862    2859    2865      10    2862    2859    2868      10    2862    2859
    2871      10    2886    2877    2889       9    2883    2877    2886       9
    2883    2877    2889       9    2880    2877    2883      10    2880    2877
    2886      10    2880    2877    2889      10    2904    2895    2907       9
    2901    2895    2904       9    2901    2895    2907       9    2898    2895
    2901      10    2898    2895    2904      10    2898    2895    2907      10
    2922    2913    2925       9    2919    2913    2922       9    2919    2913
    2925       9    2916    2913    2919      10    2916    2913    2922      10
    2916    2913    2925      10    2940    2931    2943       9    2937    2931
    2940       9    2937    2931    2943       9    2934    2931    2937      10
    2934    2931    2940      10    2934    2931    2943      10    2958    2949
    2961       9    2955    2949    2958       9    2955    2949    2961       9
    2952    2949    2955      10    2952    2949    2958      10    2952    2949
    2961      10    2976    2967    2979       9    2973    2967    2976       9
    2973    2967    2979       9    2970    2967    2973      10    2970    2967
    2976      10    2970    2967    2979      10    2994    2985    2997       9
    2991    2985    2994       9    2991    2985    2997       9    2988    2985
    2991      10    2988    2985    2994      10    2988    2985    2997      10
    3012    3003    3015       9    3009    3003    3012       9    3009    3003
    3015       9    3006    3003    3009      10    3006    3003    3012      10
    3006    3003    3015      10    3030    3021    3033       9    3027    3021
    3030       9    3027    3021    3033       9    3024    3021    3027      10
    3024    3021    3030      10    3024    3021    3033      10    3048    3039
    3051       9    3045    3039    3048       9    3045    3039    3051       9
    3042    3039    3045      10    3042    3039    3048      10    3042    3039
    3051      10    3066    3057    3069       9    3063    3057    3066       9
    3063    3057    3069       9    3060    3057    3063      10    3060    3057
    3066      10    3060    3057    3069      10    3084    3075    3087       9
    3081    3075    3084       9    3081    3075    3087       9    3078    3075
    3081      10    3078    3075    3084      10    3078    3075    3087      10
    3102    3093    3105       9    3099    3093    3102       9    3099    3093
    3105       9    3096    3093    3099      10    3096    3093    3102      10
    3096    3093    3105      10    3120    3111    3123       9    3117    3111
    3120       9    3117    3111    3123       9    3114    3111    3117      10
    3114    3111    3120      10    3114    3111    3123      10    3138    3129
    3141       9    3135    3129    3138       9    3135    3129    3141       9
    3132    3129    3135      10    3132    3129    3138      10    3132    3129
    3141      10    3156    3147    3159       9    3153    3147    3156       9
    3153    3147    3159       9    3150    3147    3153      10    3150    3147
    3156      10    3150    3147    3159      10    3174    3165    3177       9
    3171    3165    3174       9    3171    3165    3177       9    3168    3165
    3171      10    3168    3165    3174      10    3168    3165    3177      10
    3192    3183    3195       9    3189    3183    3192       9    3189    3183
    3195       9    3186    3183    3189      10    3186    3183    3192      10
    3186    3183    3195      10    3210    3201    3213       9    3207    3201
    3210       9    3207    3201    3213       9    3204    3201    3207      10
    3204    3201    3210      10    3204    3201    3213      10    3228    3219
    3231       9    3225    3219    3228       9    3225    3219    3231       9
    3222    3219    3225      10    3222    3219    3228      10    3222    3219
    3231      10    3246    3237    3249       9    3243    3237    3246       9
    3243    3237    3249       9    3240    3237    3243      10    3240    3237
    3246      10    3240    3237    3249      10    3264    3255    3267       9
    3261    3255    3264       9    3261    3255    3267       9    3258    3255
    3261      10    3258    3255    3264      10    3258    3255    3267      10
    3282    3273    3285       9    3279    3273    3282       9    3279    3273
    3285       9    3276    3273    3279      10    3276    3273    3282      10
    3276    3273    3285      10    3300    3291    3303       9    3297    3291
    3300       9    3297    3291    3303       9    3294    3291    3297      10
    3294    3291    3300      10    3294    3291    3303      10    3318    3309
    3321       9    3315    3309    3318       9    3315    3309    3321       9
    3312    3309    3315      10    3312    3309    3318      10    3312    3309
    3321      10    3336    3327    3339       9    3333    3327    3336       9
    3333    3327    3339       9    3330    3327    3333      10    3330    3327
    3336      10    3330    3327    3339      10    3354    3345    3357       9
    3351    3345    3354       9    3351    3345    3357       9    3348    3345
    3351      10    3348    3345    3354      10    3348    3345    3357      10
    3372    3363    3375       9    3369    3363    3372       9    3369    3363
    3375       9    3366    3363    3369      10    3366    3363    3372      10
    3366    3363    3375      10    3390    3381    3393       9    3387    3381
    3390       9    3387    3381    3393       9    3384    3381    3387      10
    3384    3381    3390      10    3384    3381    3393      10    3408    3399
    3411       9    3405    3399    3408       9    3405    3399    3411       9
    3402    3399    3405      10    3402    3399    3408      10    3402    3399
    3411      10    3426    3417    3429       9    3423    3417    3426       9
    3423    3417    3429       9    3420    3417    3423      10    3420    3417
    3426      10    3420    3417    3429      10    3444    3435    3447       9
    3441    3435    3444       9    3441    3435    3447       9    3438    3435
    3441      10    3438    3435    3444      10    3438    3435    3447      10
    3462    3453    3465       9    3459    3453    3462       9    3459    3453
    3465       9    3456    3453    3459      10    3456    3453    3462      10
    3456    3453    3465      10    3480    3471    3483       9    3477    3471
    3480       9    3477    3471    3483       9    3474    3471    3477      10
    3474    3471    3480      10    3474    3471    3483      10    3498    3489
    3501       9    3495    3489    3498       9    3495    3489    3501       9
    3492    3489    3495      10    3492    3489    3498      10    3492    3489
    3501      10    3516    3507    3519       9    3513    3507    3516       9
    3513    3507    3519       9    3510    3507    3513      10    3510    3507
    3516      10    3510    3507    3519      10    3534    3525    3537       9
    3531    3525    3534       9    3531    3525    3537       9    3528    3525
    3531      10    3528    3525    3534      10    3528    3525    3537      10
    3552    3543    3555       9    3549    3543    3552       9    3549    3543
    3555       9    3546    3543    3549      10    3546    3543    3552      10
    3546    3543    3555      10    3570    3561    3573       9    3567    3561
    3570       9    3567    3561    3573       9    3564    3561    3567      10
    3564    3561    3570      10    3564    3561    3573      10    3588    3579
    3591       9    3585    3579    3588       9    3585    3579    3591       9
    3582    3579    3585      10    3582    3579    3588      10    3582    3579
    3591      10    3606    3597    3609       9    3603    3597    3606       9
    3603    3597    3609       9    3600    3597    3603      10    3600    3597
    3606      10    3600    3597    3609      10    3624    3615    3627       9
    3621    3615    3624       9    3621    3615    3627       9    3618    3615
    3621      10    3618    3615    3624      10    3618    3615    3627      10
    3642    3633    3645       9    3639    3633    3642       9    3639    3633
    3645       9    3636    3633    3639      10    3636    3633    3642      10
    3636    3633    3645      10    3660    3651    3663       9    3657    3651
    3660       9    3657    3651    3663       9    3654    3651    3657      10
    3654    3651    3660      10    3654    3651    3663      10    3678    3669
    3681       9    3675    3669    3678       9    3675    3669    3681       9
    3672    3669    3675      10    3672    3669    3678      10    3672    3669
    3681      10    3696    3687    3699       9    3693    3687    3696       9
    3693    3687    3699       9    3690    3687    3693      10    3690    3687
    3696      10    3690    3687    3699      10    3714    3705    3717       9
    3711    3705    3714       9    3711    3705    3717       9    3708    3705
    3711      10    3708    3705    3714      10    3708    3705    3717      10
    3732    3723    3735       9    3729    3723    3732       9    3729    3723
    3735       9    3726    3723    3729      10    3726    3723    3732      10
    3726    3723    3735      10    3750    3741    3753       9    3747    3741
    3750       9    3747    3741    3753       9    3744    3741    3747      10
    3744    3741    3750      10    3744    3741    3753      10    3768    3759
    3771       9    3765    3759    3768       9    3765    3759    3771       9
    3762    3759    3765      10    3762    3759    3768      10    3762    3759
    3771      10    3786    3777    3789       9    3783    3777    3786       9
    3783    3777    3789       9    3780    3777    3783      10    3780    3777
    3786      10    3780    3777    3789      10    3804    3795    3807       9
    3801    3795    3804       9    3801    3795    3807       9    3798    3795
    3801      10    3798    3795    3804      10    3798    3795    3807      10
    3822    3813    3825       9    3819    3813    3822       9    3819    3813
    3825       9    3816    3813    3819      10    3816    3813    3822      10
    3816    3813    3825      10    3840    3831    3843       9    3837    3831
    3840       9    3837    3831    3843       9    3834    3831    3837      10
    3834    3831    3840      10    3834    3831    3843      10    3858    3849
    3861       9    3855    3849    3858       9    3855    3849    3861       9
    3852    3849    3855      10    3852    3849    3858      10    3852    3849
    3861      10    3876    3867    3879       9    3873    3867    3876       9
    3873    3867    3879       9    3870    3867    3873      10    3870    3867
    3876      10    3870    3867    3879      10    3894    3885    3897       9
    3891    3885    3894       9    3891    3885    3897       9    3888    3885
    3891      10    3888    3885    3894      10    3888    3885    3897      10
    3912    3903    3915       9    3909    3903    3912       9    3909    3903
    3915       9    3906    3903    3909      10    3906    3903    3912      10
    3906    3903    3915      10    3930    3921    3933       9    3927    3921
    3930       9    3927    3921    3933       9    3924    3921    3927      10
    3924    3921    3930      10    3924    3921    3933      10    3948    3939
    3951       9    3945    3939    3948       9    3945    3939    3951       9
    3942    3939    3945      10    3942    3939    3948      10    3942    3939
    3951      10    3966    3957    3969       9    3963    3957    3966       9
    3963    3957    3969       9    3960    3957    3963      10    3960    3957
    3966      10    3960    3957    3969      10    3984    3975    3987       9
    3981    3975    3984       9    3981    3975    3987       9    3978    3975
    3981      10    3978    3975    3984      10    3978    3975    3987      10
    4002    3993    4005       9    3999    3993    4002       9    3999    3993
    4005       9    3996    3993    3999      10    3996    3993    4002      10
    3996    3993    4005      10    4020    4011    4023       9    4017    4011
    4020       9    4017    4011    4023       9    4014    4011    4017      10
    4014    4011    4020      10    4014    4011    4023      10    4038    4029
    4041       9    4035    4029    4038       9    4035    4029    4041       9
    4032    4029    4035      10    4032    4029    4038      10    4032    4029
    4041      10    4056    4047    4059       9    4053    4047    4056       9
    4053    4047    4059       9    4050    4047    4053      10    4050    4047
    4056      10    4050    4047    4059      10    4074    4065    4077       9
    4071    4065    4074       9    4071    4065    4077       9    4068    4065
    4071      10    4068    4065    4074      10    4068    4065    4077      10
    4092    4083    4095       9    4089    4083    4092       9    4089    4083
    4095       9    4086    4083    4089      10    4086    4083    4092      10
    4086    4083    4095      10    4110    4101    4113       9    4107    4101
    4110       9    4107    4101    4113       9    4104    4101    4107      10
    4104    4101    4110      10    4104    4101    4113      10    4128    4119
    4131       9    4125    4119    4128       9    4125    4119    4131       9
    4122    4119    4125      10    4122    4119    4128      10    4122    4119
    4131      10    4146    4137    4149       9    4143    4137    4146       9
    4143    4137    4149       9    4140    4137    4143      10    4140    4137
    4146      10    4140    4137    4149      10    4164    4155    4167       9
    4161    4155    4164       9    4161    4155    4167       9    4158    4155
    4161      10    4158    4155    4164      10    4158    4155    4167      10
    4182    4173    4185       9    4179    4173    4182       9    4179    4173
    4185       9    4176    4173    4179      10    4176    4173    4182      10
    4176    4173    4185      10    4200    4191    4203       9    4197    4191
    4200       9    4197    4191    4203       9    4194    4191    4197      10
    4194    4191    4200      10    4194    4191    4203      10    4218    4209
    4221       9    4215    4209    4218       9    4215    4209    4221       9
    4212    4209    4215      10    4212    4209    4218      10    4212    4209
    4221      10    4236    4227    4239       9    4233    4227    4236       9
    4233    4227    4239       9    4230    4227    4233      10    4230    4227
    4236      10    4230    4227    4239      10    4254    4245    4257       9
    4251    4245    4254       9    4251    4245    4257       9    4248    4245
    4251      10    4248    4245    4254      10    4248    4245    4257      10
    4272    4263    4275       9    4269    4263    4272       9    4269    4263
    4275       9    4266    4263    4269      10    4266    4263    4272      10
    4266    4263    4275      10    4290    4281    4293       9    4287    4281
    4290       9    4287    4281    4293       9    4284    4281    4287      10
    4284    4281    4290      10    4284    4281    4293      10    4308    4299
    4311       9    4305    4299    4308       9    4305    4299    4311       9
    4302    4299    4305      10    4302    4299    4308      10    4302    4299
    4311      10    4326    4317    4329       9    4323    4317    4326       9
    4323    4317    4329       9    4320    4317    4323      10    4320    4317
    4326      10    4320    4317    4329      10    4344    4335    4347       9
    4341    4335    4344       9    4341    4335    4347       9    4338    4335
    4341      10    4338    4335    4344      10    4338    4335    4347      10
    4362    4353    4365       9    4359    4353    4362       9    4359    4353
    4365       9    4356    4353    4359      10    4356    4353    4362      10
    4356    4353    4365      10    4380    4371    4383       9    4377    4371
    4380       9    4377    4371    4383       9    4374    4371    4377      10
    4374    4371    4380      10    4374    4371    4383      10    4398    4389
    4401       9    4395    4389    4398       9    4395    4389    4401       9
    4392    4389    4395      10    4392    4389    4398      10    4392    4389
    4401      10    4416    4407    4419       9    4413    4407    4416       9
    4413    4407    4419       9    4410    4407    4413      10    4410    4407
    4416      10    4410    4407    4419      10    4434    4425    4437       9
    4431    4425    4434       9    4431    4425    4437       9    4428    4425
    4431      10    4428    4425    4434      10    4428    4425    4437      10
    4452    4443    4455       9    4449    4443    4452       9    4449    4443
    4455       9    4446    4443    4449      10    4446    4443    4452      10
    4446    4443    4455      10    4470    4461    4473       9    4467    4461
    4470       9    4467    4461    4473       9    4464    4461    4467      10
    4464    4461    4470      10    4464    4461    4473      10    4488    4479
    4491       9    4485    4479    4488       9    4485    4479    4491       9
    4482    4479    4485      10    4482    4479    4488      10    4482    4479
    4491      10    4506    4497    4509       9    4503    4497    4506       9
    4503    4497    4509       9    4500    4497    4503      10    4500    4497
    4506      10    4500    4497    4509      10    4524    4515    4527       9
    4521    4515    4524       9    4521    4515    4527       9    4518    4515
    4521      10    4518    4515    4524      10    4518    4515    4527      10
    4542    4533    4545       9    4539    4533    4542       9    4539    4533
    4545       9    4536    4533    4539      10    4536    4533    4542      10
    4536    4533    4545      10    4560    4551    4563       9    4557    4551
    4560       9    4557    4551    4563       9    4554    4551    4557      10
    4554    4551    4560      10    4554    4551    4563      10    4578    4569
    4581       9    4575    4569    4578       9    4575    4569    4581       9
    4572    4569    4575      10    4572    4569    4578      10    4572    4569
    4581      10    4596    4587    4599       9    4593    4587    4596       9
    4593    4587    4599       9    4590    4587    4593      10    4590    4587
    4596      10    4590    4587    4599      10    4614    4605    4617       9
    4611    4605    4614       9    4611    4605    4617       9    4608    4605
    4611      10    4608    4605    4614      10    4608    4605    4617      10
    4632    4623    4635       9    4629    4623    4632       9    4629    4623
    4635       9    4626    4623    4629      10    4626    4623    4632      10
    4626    4623    4635      10    4650    4641    4653       9    4647    4641
    4650       9    4647    4641    4653       9    4644    4641    4647      10
    4644    4641    4650      10    4644    4641    4653      10    4668    4659
    4671       9    4665    4659    4668       9    4665    4659    4671       9
    4662    4659    4665      10    4662    4659    4668      10    4662    4659
    4671      10    4686    4677    4689       9    4683    4677    4686       9
    4683    4677    4689       9    4680    4677    4683      10    4680    4677
    4686      10    4680    4677    4689      10    4704    4695    4707       9
    4701    4695    4704       9    4701    4695    4707       9    4698    4695
    4701      10    4698    4695    4704      10    4698    4695    4707      10
    4722    4713    4725       9    4719    4713    4722       9    4719    4713
    4725       9    4716    4713    4719      10    4716    4713    4722      10
    4716    4713    4725      10    4740    4731    4743       9    4737    4731
    4740       9    4737    4731    4743       9    4734    4731    4737      10
    4734    4731    4740      10    4734    4731    4743      10    4758    4749
    4761       9    4755    4749    4758       9    4755    4749    4761       9
    4752    4749    4755      10    4752    4749    4758      10    4752    4749
    4761      10    4776    4767    4779       9    4773    4767    4776       9
    4773    4767    4779       9    4770    4767    4773      10    4770    4767
    4776      10    4770    4767    4779      10    4794    4785    4797       9
    4791    4785    4794       9    4791    4785    4797       9    4788    4785
    4791      10    4788    4785    4794      10    4788    4785    4797      10
    4812    4803    4815       9    4809    4803    4812       9    4809    4803
    4815       9    4806    4803    4809      10    4806    4803    4812      10
    4806    4803    4815      10    4830    4821    4833       9    4827    4821
    4830       9    4827    4821    4833       9    4824    4821    4827      10
    4824    4821    4830      10    4824    4821    4833      10    4848    4839
    4851       9    4845    4839    4848       9    4845    4839    4851       9
    4842    4839    4845      10    4842    4839    4848      10    4842    4839
    4851      10    4866    4857    4869       9    4863    4857    4866       9
    4863    4857    4869       9    4860    4857    4863      10    4860    4857
    4866      10    4860    4857    4869      10    4884    4875    4887       9
    4881    4875    4884       9    4881    4875    4887       9    4878    4875
    4881      10    4878    4875    4884      10    4878    4875    4887      10
    4902    4893    4905       9    4899    4893    4902       9    4899    4893
    4905       9    4896    4893    4899      10    4896    4893    4902      10
    4896    4893    4905      10    4920    4911    4923       9    4917    4911
    4920       9    4917    4911    4923       9    4914    4911    4917      10
    4914    4911    4920      10    4914    4911    4923      10    4938    4929
    4941       9    4935    4929    4938       9    4935    4929    4941       9
    4932    4929    4935      10    4932    4929    4938      10    4932    4929
    4941      10    4956    4947    4959       9    4953    4947    4956       9
    4953    4947    4959       9    4950    4947    4953      10    4950    4947
    4956      10    4950    4947    4959      10    4974    4965    4977       9
    4971    4965    4974       9    4971    4965    4977       9    4968    4965
    4971      10    4968    4965    4974      10    4968    4965    4977      10
    4992    4983    4995       9    4989    4983    4992       9    4989    4983
    4995       9    4986    4983    4989      10    4986    4983    4992      10
    4986    4983    4995      10    5010    5001    5013       9    5007    5001
    5010       9    5007    5001    5013       9    5004    5001    5007      10
    5004    5001    5010      10    5004    5001    5013      10    5028    5019
    5031       9    5025    5019    5028       9    5025    5019    5031       9
    5022    5019    5025      10    5022    5019    5028      10    5022    5019
    5031      10    5046    5037    5049       9    5043    5037    5046       9
    5043    5037    5049       9    5040    5037    5043      10    5040    5037
    5046      10    5040    5037    5049      10    5064    5055    5067       9
    5061    5055    5064       9    5061    5055    5067       9    5058    5055
    5061      10    5058    5055    5064      10    5058    5055    5067      10
    5082    5073    5085       9    5079    5073    5082       9    5079    5073
    5085       9    5076    5073    5079      10    5076    5073    5082      10
    5076    5073    5085      10    5100    5091    5103       9    5097    5091
    5100       9    5097    5091    5103       9    5094    5091    5097      10
    5094    5091    5100      10    5094    5091    5103      10    5118    5109
    5121       9    5115    5109    5118       9    5115    5109    5121       9
    5112    5109    5115      10    5112    5109    5118      10    5112    5109
    5121      10    5136    5127    5139       9    5133    5127    5136       9
    5133    5127    5139       9    5130    5127    5133      10    5130    5127
    5136      10    5130    5127    5139      10    5154    5145    5157       9
    5151    5145    5154       9    5151    5145    5157       9    5148    5145
    5151      10    5148    5145    5154      10    5148    5145    5157      10
    5172    5163    5175       9    5169    5163    5172       9    5169    5163
    5175       9    5166    5163    5169      10    5166    5163    5172      10
    5166    5163    5175      10    5190    5181    5193       9    5187    5181
    5190       9    5187    5181    5193       9    5184    5181    5187      10
    5184    5181    5190      10    5184    5181    5193      10    5208    5199
    5211       9    5205    5199    5208       9    5205    5199    5211       9
    5202    5199    5205      10    5202    5199    5208      10    5202    5199
    5211      10    5226    5217    5229       9    5223    5217    5226       9
    5223    5217    5229       9    5220    5217    5223      10    5220    5217
    5226      10    5220    5217    5229      10    5244    5235    5247       9
    5241    5235    5244       9    5241    5235    5247       9    5238    5235
    5241      10    5238    5235    5244      10    5238    5235    5247      10
    5262    5253    5265       9    5259    5253    5262       9    5259    5253
    5265       9    5256    5253    5259      10    5256    5253    5262      10
    5256    5253    5265      10    5280    5271    5283       9    5277    5271
    5280       9    5277    5271    5283       9    5274    5271    5277      10
    5274    5271    5280      10    5274    5271    5283      10    5298    5289
    5301       9    5295    5289    5298       9    5295    5289    5301       9
    5292    5289    5295      10    5292    5289    5298      10    5292    5289
    5301      10    5316    5307    5319       9    5313    5307    5316       9
    5313    5307    5319       9    5310    5307    5313      10    5310    5307
    5316      10    5310    5307    5319      10    5334    5325    5337       9
    5331    5325    5334       9    5331    5325    5337       9    5328    5325
    5331      10    5328    5325    5334      10    5328    5325    5337      10
    5352    5343    5355       9    5349    5343    5352       9    5349    5343
    5355       9    5346    5343    5349      10    5346    5343    5352      10
    5346    5343    5355      10    5370    5361    5373       9    5367    5361
    5370       9    5367    5361    5373       9    5364    5361    5367      10
    5364    5361    5370      10    5364    5361    5373      10    5388    5379
    5391       9    5385    5379    5388       9    5385    5379    5391       9
    5382    5379    5385      10    5382    5379    5388      10    5382    5379
    5391      10    5406    5397    5409       9    5403    5397    5406       9
    5403    5397    5409       9    5400    5397    5403      10    5400    5397
    5406      10    5400    5397    5409      10    5424    5415    5427       9
    5421    5415    5424       9    5421    5415    5427       9    5418    5415
    5421      10    5418    5415    5424      10    5418    5415    5427      10
    5442    5433    5445       9    5439    5433    5442       9    5439    5433
    5445       9    5436    5433    5439      10    5436    5433    5442      10
    5436    5433    5445      10    5460    5451    5463       9    5457    5451
    5460       9    5457    5451    5463       9    5454    5451    5457      10
    5454    5451    5460      10    5454    5451    5463      10    5478    5469
    5481       9    5475    5469    5478       9    5475    5469    5481       9
    5472    5469    5475      10    5472    5469    5478      10    5472    5469
    5481      10    5496    5487    5499       9    5493    5487    5496       9
    5493    5487    5499       9    5490    5487    5493      10    5490    5487
    5496      10    5490    5487    5499      10    5514    5505    5517       9
    5511    5505    5514       9    5511    5505    5517       9    5508    5505
    5511      10    5508    5505    5514      10    5508    5505    5517      10
    5532    5523    5535       9    5529    5523    5532       9    5529    5523
    5535       9    5526    5523    5529      10    5526    5523    5532      10
    5526    5523    5535      10    5550    5541    5553       9    5547    5541
    5550       9    5547    5541    5553       9    5544    5541    5547      10
    5544    5541    5550      10    5544    5541    5553      10    5568    5559
    5571       9    5565    5559    5568       9    5565    5559    5571       9
    5562    5559    5565      10    5562    5559    5568      10    5562    5559
    5571      10    5586    5577    5589       9    5583    5577    5586       9
    5583    5577    5589       9    5580    5577    5583      10    5580    5577
    5586      10    5580    5577    5589      10    5604    5595    5607       9
    5601    5595    5604       9    5601    5595    5607       9    5598    5595
    5601      10    5598    5595    5604      10    5598    5595    5607      10
    5622    5613    5625       9    5619    5613    5622       9    5619    5613
    5625       9    5616    5613    5619      10    5616    5613    5622      10
    5616    5613    5625      10    5640    5631    5643       9    5637    5631
    5640       9    5637    5631    5643       9    5634    5631    5637      10
    5634    5631    5640      10    5634    5631    5643      10    5658    5649
    5661       9    5655    5649    5658       9    5655    5649    5661       9
    5652    5649    5655      10    5652    5649    5658      10    5652    5649
    5661      10    5676    5667    5679       9    5673    5667    5676       9
    5673    5667    5679       9    5670    5667    5673      10    5670    5667
    5676      10    5670    5667    5679      10    5694    5685    5697       9
    5691    5685    5694       9    5691    5685    5697       9    5688    5685
    5691      10    5688    5685    5694      10    5688    5685    5697      10
    5712    5703    5715       9    5709    5703    5712       9    5709    5703
    5715       9    5706    5703    5709      10    5706    5703    5712      10
    5706    5703    5715      10    5730    5721    5733       9    5727    5721
    5730       9    5727    5721    5733       9    5724    5721    5727      10
    5724    5721    5730      10    5724    5721    5733      10    5748    5739
    5751       9    5745    5739    5748       9    5745    5739    5751       9
    5742    5739    5745      10    5742    5739    5748      10    5742    5739
    5751      10    5766    5757    5769       9    5763    5757    5766       9
    5763    5757    5769       9    5760    5757    5763      10    5760    5757
    5766      10    5760    5757    5769      10    5784    5775    5787       9
    5781    5775    5784       9    5781    5775    5787       9    5778    5775
    5781      10    5778    5775    5784      10    5778    5775    5787      10
    5802    5793    5805       9    5799    5793    5802       9    5799    5793
    5805       9    5796    5793    5799      10    5796    5793    5802      10
    5796    5793    5805      10    5820    5811    5823       9    5817    5811
    5820       9    5817    5811    5823       9    5814    5811    5817      10
    5814    5811    5820      10    5814    5811    5823      10    5838    5829
    5841       9    5835    5829    5838       9    5835    5829    5841       9
    5832    5829    5835      10    5832    5829    5838      10    5832    5829
    5841      10    5856    5847    5859       9    5853    5847    5856       9
    5853    5847    5859       9    5850    5847    5853      10    5850    5847
    5856      10    5850    5847    5859      10    5874    5865    5877       9
    5871    5865    5874       9    5871    5865    5877       9    5868    5865
    5871      10    5868    5865    5874      10    5868    5865    5877      10
    5892    5883    5895       9    5889    5883    5892       9    5889    5883
    5895       9    5886    5883    5889      10    5886    5883    5892      10
    5886    5883    5895      10    5910    5901    5913       9    5907    5901
    5910       9    5907    5901    5913       9    5904    5901    5907      10
    5904    5901    5910      10    5904    5901    5913      10    5928    5919
    5931       9    5925    5919    5928       9    5925    5919    5931       9
    5922    5919    5925      10    5922    5919    5928      10    5922    5919
    5931      10    5946    5937    5949       9    5943    5937    5946       9
    5943    5937    5949       9    5940    5937    5943      10    5940    5937
    5946      10    5940    5937    5949      10    5964    5955    5967       9
    5961    5955    5964       9    5961    5955    5967       9    5958    5955
    5961      10    5958    5955    5964      10    5958    5955    5967      10
    5982    5973    5985       9    5979    5973    5982       9    5979    5973
    5985       9    5976    5973    5979      10    5976    5973    5982      10
    5976    5973    5985      10    6000    5991    6003       9    5997    5991
    6000       9    5997    5991    6003       9    5994    5991    5997      10
    5994    5991    6000      10    5994    5991    6003      10    6018    6009
    6021       9    6015    6009    6018       9    6015    6009    6021       9
    6012    6009    6015      10    6012    6009    6018      10    6012    6009
    6021      10    6036    6027    6039       9    6033    6027    6036       9
    6033    6027    6039       9    6030    6027    6033      10    6030    6027
    6036      10    6030    6027    6039      10    6054    6045    6057       9
    6051    6045    6054       9    6051    6045    6057       9    6048    6045
    6051      10    6048    6045    6054      10    6048    6045    6057      10
    6072    6063    6075       9    6069    6063    6072       9    6069    6063
    6075       9    6066    6063    6069      10    6066    6063    6072      10
    6066    6063    6075      10    6090    6081    6093       9    6087    6081
    6090       9    6087    6081    6093       9    6084    6081    6087      10
    6084    6081    6090      10    6084    6081    6093      10    6108    6099
    6111       9    6105    6099    6108       9    6105    6099    6111       9
    6102    6099    6105      10    6102    6099    6108      10    6102    6099
    6111      10    6126    6117    6129       9    6123    6117    6126       9
    6123    6117    6129       9    6120    6117    6123      10    6120    6117
    6126      10    6120    6117    6129      10    6144    6135    6147       9
    6141    6135    6144       9    6141    6135    6147       9    6138    6135
    6141      10    6138    6135    6144      10    6138    6135    6147      10
    6162    6153    6165       9    6159    6153    6162       9    6159    6153
    6165       9    6156    6153    6159      10    6156    6153    6162      10
    6156    6153    6165      10    6180    6171    6183       9    6177    6171
    6180       9    6177    6171    6183       9    6174    6171    6177      10
    6174    6171    6180      10    6174    6171    6183      10    6198    6189
    6201       9    6195    6189    6198       9    6195    6189    6201       9
    6192    6189    6195      10    6192    6189    6198      10    6192    6189
    6201      10    6216    6207    6219       9    6213    6207    6216       9
    6213    6207    6219       9    6210    6207    6213      10    6210    6207
    6216      10    6210    6207    6219      10    6234    6225    6237       9
    6231    6225    6234       9    6231    6225    6237       9    6228    6225
    6231      10    6228    6225    6234      10    6228    6225    6237      10
%FLAG ANGLES_WITHOUT_HYDROGEN                                                   
%FORMAT(10I8)                                                                   
      81      15      87       2      78      12      84       2      75      51
      87       3      72      48      84       3      69      45      81       3
      66      42      78       3      51      75      63       5      48      72
      60       5      45      39      51       5      45      69      57       5
      42      36      48       5      42      66      54       5      39      45
      69       5      39      45      81       3      39      51      75       5
      39      51      87       3      36      42      66       5      36      42
      78       3      36      48      72       5      36      48      84       3
      33      21      39       5      33      30      60       5      33      63
      75       5      30      18      36       5      30      33      63       5
      30      60      72       5      27      21      33       5      27      21
      39       5      27      24      54       5      27      57      69       5
      24      18      30       5      24      18      36       5      24      27
      57       5      24      54      66       5      21      27      24       5
      21      27      57       5      21      33      30       5      21      33
      63       5      21      39      45       5      21      39      51       5
      18      24      27       5      18      24      54       5      18      30
      33       5      18      30      60       5      18      36      42       5
      18      36      48       5      15      81      45       6      15      87
      51       6      12      78      42       6      12      84      48       6
       9      87      15       7       9      87      51       8       6      84
      12       7       6      84      48       8       3      81      15       7
       3      81      45       8       0      78      12       7       0      78
      42       8     120     126     123      11     138     144     141      11
     156     162     159      11     174     180     177      11     192     198
     195      11     210     216     213      11     228     234     231      11
     246     252     249      11     264     270     267      11     282     288
     285      11     300     306     303      11     318     324     321      11
     336     342     339      11     354     360     357      11     372     378
     375      11     390     396     393      11     408     414     411      11
     426     432     429      11     444     450     447      11     462     468
     465      11     480     486     483      11     498     504     501      11
     516     522     519      11     534     540     537      11     552     558
     555      11     570     576     573      11     588     594     591      11
     606     612     609      11     624     630     627      11     642     648
     645      11     660     666     663      11     678     684     681      11
     696     702     699      11     714     720     717      11     732     738
     735      11     750     756     753      11     768     774     771      11
     786     792     789      11     804     810     807      11     822     828
     825      11     840     846     843      11     858     864     861      11
     876     882     879      11     894     900     897      11     912     918
     915      11     930     936     933      11     948     954     951      11
     966     972     969      11     984     990     987      11    1002    1008
    1005      11    1020    1026    1023      11    1038    1044    1041      11
    1056    1062    1059      11    1074    1080    1077      11    1092    1098
    1095      11    1110    1116    1113      11    1128    1134    1131      11
    1146    1152    1149      11    1164    1170    1167      11    1182    1188
    1185      11    1200    1206    1203      11    1218    1224    1221      11
    1236    1242    1239      11    1254    1260    1257      11    1272    1278
    1275      11    1290    1296    1293      11    1308    1314    1311      11
    1326    1332    1329      11    1344    1350    1347      11    1362    1368
    1365      11    1380    1386    1383      11    1398    1404    1401      11
    1416    1422    1419      11    1434    1440    1437      11    1452    1458
    1455      11    1470    1476    1473      11    1488    1494    1491      11
    1506    1512    1509      11    1524    1530    1527      11    1542    1548
    1545      11    1560    1566    1563      11    1578    1584    1581      11
    1596    1602    1599      11    1614    1620    1617      11    1632    1638
    1635      11    1650    1656    1653      11    1668    1674    1671      11
    1686    1692    1689      11    1704    1710    1707      11    1722    1728
    1725      11    1740    1746    1743      11    1758    1764    1761      11
    1776    1782    1779      11    1794    1800    1797      11    1812    1818
    1815      11    1830    1836    1833      11    1848    1854    1851      11
    1866    1872    1869      11    1884    1890    1887      11    1902    1908
    1905      11    1920    1926    1923      11    1938    1944    1941      11
    1956    1962    1959      11    1974    1980    1977      11    1992    1998
    1995      11    2010    2016    2013      11    2028    2034    2031      11
    2046    2052    2049      11    2064    2070    2067      11    2082    2088
    2085      11    2100    2106    2103      11    2118    2124    2121      11
    2136    2142    2139      11    2154    2160    2157      11    2172    2178
    2175      11    2190    2196    2193      11    2208    2214    2211      11
    2226    2232    2229      11    2244    2250    2247      11    2262    2268
    2265      11    2280    2286    2283      11    2298    2304    2301      11
    2316    2322    2319      11    2334    2340    2337      11    2352    2358
    2355      11    2370    2376    2373      11    2388    2394    2391      11
    2406    2412    2409      11    2424    2430    2427      11    2442    2448
    2445      11    2460    2466    2463      11    2478    2484    2481      11
    2496    2502    2499      11    2514    2520    2517      11    2532    2538
    2535      11    2550    2556    2553      11    2568    2574    2571      11
    2586    2592    2589      11    2604    2610    2607      11    2622    2628
    2625      11    2640    2646    2643      11    2658    2664    2661      11
    2676    2682    2679      11    2694    2700    2697      11    2712    2718
    2715      11    2730    2736    2733      11    2748    2754    2751      11
    2766    2772    2769      11    2784    2790    2787      11    2802    2808
    2805      11    2820    2826    2823      11    2838    2844    2841      11
    2856    2862    2859      11    2874    2880    2877      11    2892    2898
    2895      11    2910    2916    2913      11    2928    2934    2931      11
    2946    2952    2949      11    2964    2970    2967      11    2982    2988
    2985      11    3000    3006    3003      11    3018    3024    3021      11
    3036    3042    3039      11    3054    3060    3057      11    3072    3078
    3075      11    3090    3096    3093      11    3108    3114    3111      11
    3126    3132    3129      11    3144    3150    3147      11    3162    3168
    3165      11    3180    3186    3183      11    3198    3204    3201      11
    3216    3222    3219      11    3234    3240    3237      11    3252    3258
    3255      11    3270    3276    3273      11    3288    3294    3291      11
    3306    3312    3309      11    3324    3330    3327      11    3342    3348
    3345      11    3360    3366    3363      11    3378    3384    3381      11
    3396    3402    3399      11    3414    3420    3417      11    3432    3438
    3435      11    3450    3456    3453      11    3468    3474    3471      11
    3486    3492    3489      11    3504    3510    3507      11    3522    3528
    3525      11    3540    3546    3543      11    3558    3564    3561      11
    3576    3582    3579      11    3594    3600    3597      11    3612    3618
    3615      11    3630    3636    3633      11    3648    3654    3651      11
    3666    3672    3669      11    3684    3690    3687      11    3702    3708
    3705      11    3720    3726    3723      11    3738    3744    3741      11
    3756    3762    3759      11    3774    3780    3777      11    3792    3798
    3795      11    3810    3816    3813      11    3828    3834    3831      11
    3846    3852    3849      11    3864    3870    3867      11    3882    3888
    3885      11    3900    3906    3903      11    3918    3924    3921      11
    3936    3942    3939      11    3954    3960    3957      11    3972    3978
    3975      11    3990    3996    3993      11    4008    4014    4011      11
    4026    4032    4029      11    4044    4050    4047      11    4062    4068
    4065      11    4080    4086    4083      11    4098    4104    4101      11
    4116    4122    4119      11    4134    4140    4137      11    4152    4158
    4155      11    4170    4176    4173      11    4188    4194    4191      11
    4206    4212    4209      11    4224    4230    4227      11    4242    4248
    4245      11    4260    4266    4263      11    4278    4284    4281      11
    4296    4302    4299      11    4314    4320    4317      11    4332    4338
    4335      11    4350    4356    4353      11    4368    4374    4371      11
    4386    4392    4389      11    4404    4410    4407      11    4422    4428
    4425      11    4440    4446    4443      11    4458    4464    4461      11
    4476    4482    4479      11    4494    4500    4497      11    4512    4518
    4515      11    4530    4536    4533      11    4548    4554    4551      11
    4566    4572    4569      11    4584    4590    4587      11    4602    4608
    4605      11    4620    4626    4623      11    4638    4644    4641      11
    4656    4662    4659      11    4674    4680    4677      11    4692    4698
    4695      11    4710    4716    4713      11    4728    4734    4731      11
    4746    4752    4749      11    4764    4770    4767      11    4782    4788
    4785      11    4800    4806    4803      11    4818    4824    4821      11
    4836    4842    4839      11    4854    4860    4857      11    4872    4878
    4875      11    4890    4896    4893      11    4908    4914    4911      11
    4926    4932    4929      11    4944    4950    4947      11    4962    4968
    4965      11    4980    4986    4983      11    4998    5004    5001      11
    5016    5022    5019      11    5034    5040    5037      11    5052    5058
    5055      11    5070    5076    5073      11    5088    5094    5091      11
    5106    5112    5109      11    5124    5130    5127      11    5142    5148
    5145      11    5160    5166    5163      11    5178    5184    5181      11
    5196    5202    5199      11    5214    5220    5217      11    5232    5238
    5235      11    5250    5256    5253      11    5268    5274    5271      11
    5286    5292    5289      11    5304    5310    5307      11    5322    5328
    5325      11    5340    5346    5343      11    5358    5364    5361      11
    5376    5382    5379      11    5394    5400    5397      11    5412    5418
    5415      11    5430    5436    5433      11    5448    5454    5451      11
    5466    5472    5469      11    5484    5490    5487      11    5502    5508
    5505      11    5520    5526    5523      11    5538    5544    5541      11
    5556    5562    5559      11    5574    5580    5577      11    5592    5598
    5595      11    5610    5616    5613      11    5628    5634    5631      11
    5646    5652    5649      11    5664    5670    5667      11    5682    5688
    5685      11    5700    5706    5703      11    5718    5724    5721      11
    5736    5742    5739      11    5754    5760    5757      11    5772    5778
    5775      11    5790    5796    5793      11    5808    5814    5811      11
    5826    5832    5829      11    5844    5850    5847      11    5862    5868
    5865      11    5880    5886    5883      11    5898    5904    5901      11
    5916    5922    5919      11    5934    5940    5937      11    5952    5958
    5955      11    5970    5976    5973      11    5988    5994    5991      11
    6006    6012    6009      11    6024    6030    6027      11    6042    6048
    6045      11    6060    6066    6063      11    6078    6084    6081      11
    6096    6102    6099      11    6114    6120    6117      11    6132    6138
    6135      11    6150    6156    6153      11    6168    6174    6171      11
    6186    6192    6189      11    6204    6210    6207      11    6222    6228
    6225      11
%FLAG DIHEDRALS_INC_HYDROGEN                                                    
%FORMAT(10I8)                                                                   
      99      63      75     111       1      96      60      72     108       1
      93      57      69     105       1      90      54      66     102       1
      87      51      75     111       1      84      48      72     108       1
      81      45      69     105       1      78      42      66     102       1
      51      75      63      99       1      51      87      15     117       2
      48      72      60      96       1      48      84      12     114       2
      45      69      57      93       1      45      81      15     117       2
      42      66      54      90       1      42      78      12     114       2
      39      45      69     105       1      39      51      75     111       1
      36      42      66     102       1      36      48      72     108       1
      33      30      60      96       1      33      63      75     111       1
      30      33      63      99       1      30      60      72     108       1
      27      24      54      90       1      27      57      69     105       1
      24      27      57      93       1      24      54      66     102       1
      21      27      57      93       1      21      33      63      99       1
      18      24      54      90       1      18      30      60      96       1
       9      87      15     117       4       9      87     -15     117       2
       6      84      12     114       4       6      84     -12     114       2
       3      81      15     117       4       3      81     -15     117       2
       0      78      12     114       4       0      78     -12     114       2
     120     126     123     129       6     120     126     123     132       6
     120     126     123     135       6     138     144     141     147       6
     138     144     141     150       6     138     144     141     153       6
     156     162     159     165       6     156     162     159     168       6
     156     162     159     171       6     174     180     177     183       6
     174     180     177     186       6     174     180     177     189       6
     192     198     195     201       6     192     198     195     204       6
     192     198     195     207       6     210     216     213     219       6
     210     216     213     222       6     210     216     213     225       6
     228     234     231     237       6     228     234     231     240       6
     228     234     231     243       6     246     252     249     255       6
     246     252     249     258       6     246     252     249     261       6
     264     270     267     273       6     264     270     267     276       6
     264     270     267     279       6     282     288     285     291       6
     282     288     285     294       6     282     288     285     297       6
     300     306     303     309       6     300     306     303     312       6
     300     306     303     315       6     318     324     321     327       6
     318     324     321     330       6     318     324     321     333       6
     336     342     339     345       6     336     342     339     348       6
     336     342     339     351       6     354     360     357     363       6
     354     360     357     366       6     354     360     357     369       6
     372     378     375     381       6     372     378     375     384       6
     372     378     375     387       6     390     396     393     399       6
     390     396     393     402       6     390     396     393     405       6
     408     414     411     417       6     408     414     411     420       6
     408     414     411     423       6     426     432     429     435       6
     426     432     429     438       6     426     432     429     441       6
     444     450     447     453       6     444     450     447     456       6
     444     450     447     459       6     462     468     465     471       6
     462     468     465     474       6     462     468     465     477       6
     480     486     483     489       6     480     486     483     492       6
     480     486     483     495       6     498     504     501     507       6
     498     504     501     510       6     498     504     501     513       6
     516     522     519     525       6     516     522     519     528       6
     516     522     519     531       6     534     540     537     543       6
     534     540     537     546       6     534     540     537     549       6
     552     558     555     561       6     552     558     555     564       6
     552     558     555     567       6     570     576     573     579       6
     570     576     573     582       6     570     576     573     585       6
     588     594     591     597       6     588     594     591     600       6
     588     594     591     603       6     606     612     609     615       6
     606     612     609     618       6     606     612     609     621       6
     624     630     627     633       6     624     630     627     636       6
     624     630     627     639       6     642     648     645     651       6
     642     648     645     654       6     642     648     645     657       6
     660     666     663     669       6     660     666     663     672       6
     660     666     663     675       6     678     684     681     687       6
     678     684     681     690       6     678     684     681     693       6
     696     702     699     705       6     696     702     699     708       6
     696     702     699     711       6     714     720     717     723       6
     714     720     717     726       6     714     720     717     729       6
     732     738     735     741       6     732     738     735     744       6
     732     738     735     747       6     750     756     753     759       6
     750     756     753     762       6     750     756     753     765       6
     768     774     771     777       6     768     774     771     780       6
     768     774     771     783       6     786     792     789     795       6
     786     792     789     798       6     786     792     789     801       6
     804     810     807     813       6     804     810     807     816       6
     804     810     807     819       6     822     828     825     831       6
     822     828     825     834       6     822     828     825     837       6
     840     846     843     849       6     840     846     843     852       6
     840     846     843     855       6     858     864     861     867       6
     858     864     861     870       6     858     864     861     873       6
     876     882     879     885       6     876     882     879     888       6
     876     882     879     891       6     894     900     897     903       6
     894     900     897     906       6     894     900     897     909       6
     912     918     915     921       6     912     918     915     924       6
     912     918     915     927       6     930     936     933     939       6
     930     936     933     942       6     930     936     933     945       6
     948     954     951     957       6     948     954     951     960       6
     948     954     951     963       6     966     972     969     975       6
     966     972     969     978       6     966     972     969     981       6
     984     990     987     993       6     984     990     987     996       6
     984     990     987     999       6    1002    1008    1005    1011       6
    1002    1008    1005    1014       6    1002    1008    1005    1017       6
    1020    1026    1023    1029       6    1020    1026    1023    1032       6
    1020    1026    1023    1035       6    1038    1044    1041    1047       6
    1038    1044    1041    1050       6    1038    1044    1041    1053       6
    1056    1062    1059    1065       6    1056    1062    1059    1068       6
    1056    1062    1059    1071       6    1074    1080    1077    1083       6
    1074    1080    1077    1086       6    1074    1080    1077    1089       6
    1092    1098    1095    1101       6    1092    1098    1095    1104       6
    1092    1098    1095    1107       6    1110    1116    1113    1119       6
    1110    1116    1113    1122       6    1110    1116    1113    1125       6
    1128    1134    1131    1137       6    1128    1134    1131    1140       6
    1128    1134    1131    1143       6    1146    1152    1149    1155       6
    1146    1152    1149    1158       6    1146    1152    1149    1161       6
    1164    1170    1167    1173       6    1164    1170    1167    1176       6
    1164    1170    1167    1179       6    1182    1188    1185    1191       6
    1182    1188    1185    1194       6    1182    1188    1185    1197       6
    1200    1206    1203    1209       6    1200    1206    1203    1212       6
    1200    1206    1203    1215       6    1218    1224    1221    1227       6
    1218    1224    1221    1230       6    1218    1224    1221    1233       6
    1236    1242    1239    1245       6    1236    1242    1239    1248       6
    1236    1242    1239    1251       6    1254    1260    1257    1263       6
    1254    1260    1257    1266       6    1254    1260    1257    1269       6
    1272    1278    1275    1281       6    1272    1278    1275    1284       6
    1272    1278    1275    1287       6    1290    1296    1293    1299       6
    1290    1296    1293    1302       6    1290    1296    1293    1305       6
    1308    1314    1311    1317       6    1308    1314    1311    1320       6
    1308    1314    1311    1323       6    1326    1332    1329    1335       6
    1326    1332    1329    1338       6    1326    1332    1329    1341       6
    1344    1350    1347    1353       6    1344    1350    1347    1356       6
    1344    1350    1347    1359       6    1362    1368    1365    1371       6
    1362    1368    1365    1374       6    1362    1368    1365    1377       6
    1380    1386    1383    1389       6    1380    1386    1383    1392       6
    1380    1386    1383    1395       6    1398    1404    1401    1407       6
    1398    1404    1401    1410       6    1398    1404    1401    1413       6
    1416    1422    1419    1425       6    1416    1422    1419    1428       6
    1416    1422    1419    1431       6    1434    1440    1437    1443       6
    1434    1440    1437    1446       6    1434    1440    1437    1449       6
    1452    1458    1455    1461       6    1452    1458    1455    1464       6
    1452    1458    1455    1467       6    1470    1476    1473    1479       6
    1470    1476    1473    1482       6    1470    1476    1473    1485       6
    1488    1494    1491    1497       6    1488    1494    1491    1500       6
    1488    1494    1491    1503       6    1506    1512    1509    1515       6
    1506    1512    1509    1518       6    1506    1512    1509    1521       6
    1524    1530    1527    1533       6    1524    1530    1527    1536       6
    1524    1530    1527    1539       6    1542    1548    1545    1551       6
    1542    1548    1545    1554       6    1542    1548    1545    1557       6
    1560    1566    1563    1569       6    1560    1566    1563    1572       6
    1560    1566    1563    1575       6    1578    1584    1581    1587       6
    1578    1584    1581    1590       6    1578    1584    1581    1593       6
    1596    1602    1599    1605       6    1596    1602    1599    1608       6
    1596    1602    1599    1611       6    1614    1620    1617    1623       6
    1614    1620    1617    1626       6    1614    1620    1617    1629       6
    1632    1638    1635    1641       6    1632    1638    1635    1644       6
    1632    1638    1635    1647       6    1650    1656    1653    1659       6
    1650    1656    1653    1662       6    1650    1656    1653    1665       6
    1668    1674    1671    1677       6    1668    1674    1671    1680       6
    1668    1674    1671    1683       6    1686    1692    1689    1695       6
    1686    1692    1689    1698       6    1686    1692    1689    1701       6
    1704    1710    1707    1713       6    1704    1710    1707    1716       6
    1704    1710    1707    1719       6    1722    1728    1725    1731       6
    1722    1728    1725    1734       6    1722    1728    1725    1737       6
    1740    1746    1743    1749       6    1740    1746    1743    1752       6
    1740    1746    1743    1755       6    1758    1764    1761    1767       6
    1758    1764    1761    1770       6    1758    1764    1761    1773       6
    1776    1782    1779    1785       6    1776    1782    1779    1788       6
    1776    1782    1779    1791       6    1794    1800    1797    1803       6
    1794    1800    1797    1806       6    1794    1800    1797    1809       6
    1812    1818    1815    1821       6    1812    1818    1815    1824       6
    1812    1818    1815    1827       6    1830    1836    1833    1839       6
    1830    1836    1833    1842       6    1830    1836    1833    1845       6
    1848    1854    1851    1857       6    1848    1854    1851    1860       6
    1848    1854    1851    1863       6    1866    1872    1869    1875       6
    1866    1872    1869    1878       6    1866    1872    1869    1881       6
    1884    1890    1887    1893       6    1884    1890    1887    1896       6
    1884    1890    1887    1899       6    1902    1908    1905    1911       6
    1902    1908    1905    1914       6    1902    1908    1905    1917       6
    1920    1926    1923    1929       6    1920    1926    1923    1932       6
    1920    1926    1923    1935       6    1938    1944    1941    1947       6
    1938    1944    1941    1950       6    1938    1944    1941    1953       6
    1956    1962    1959    1965       6    1956    1962    1959    1968       6
    1956    1962    1959    1971       6    1974    1980    1977    1983       6
    1974    1980    1977    1986       6    1974    1980    1977    1989       6
    1992    1998    1995    2001       6    1992    1998    1995    2004       6
    1992    1998    1995    2007       6    2010    2016    2013    2019       6
    2010    2016    2013    2022       6    2010    2016    2013    2025       6
    2028    2034    2031    2037       6    2028    2034    2031    2040       6
    2028    2034    2031    2043       6    2046    2052    2049    2055       6
    2046    2052    2049    2058       6    2046    2052    2049    2061       6
    2064    2070    2067    2073       6    2064    2070    2067    2076       6
    2064    2070    2067    2079       6    2082    2088    2085    2091       6
    2082    2088    2085    2094       6    2082    2088    2085    2097       6
    2100    2106    2103    2109       6    2100    2106    2103    2112       6
    2100    2106    2103    2115       6    2118    2124    2121    2127       6
    2118    2124    2121    2130       6    2118    2124    2121    2133       6
    2136    2142    2139    2145       6    2136    2142    2139    2148       6
    2136    2142    2139    2151       6    2154    2160    2157    2163       6
    2154    2160    2157    2166       6    2154    2160    2157    2169       6
    2172    2178    2175    2181       6    2172    2178    2175    2184       6
    2172    2178    2175    2187       6    2190    2196    2193    2199       6
    2190    2196    2193    2202       6    2190    2196    2193    2205       6
    2208    2214    2211    2217       6    2208    2214    2211    2220       6
    2208    2214    2211    2223       6    2226    2232    2229    2235       6
    2226    2232    2229    2238       6    2226    2232    2229    2241       6
    2244    2250    2247    2253       6    2244    2250    2247    2256       6
    2244    2250    2247    2259       6    2262    2268    2265    2271       6
    2262    2268    2265    2274       6    2262    2268    2265    2277       6
    2280    2286    2283    2289       6    2280    2286    2283    2292       6
    2280    2286    2283    2295       6    2298    2304    2301    2307       6
    2298    2304    2301    2310       6    2298    2304    2301    2313       6
    2316    2322    2319    2325       6    2316    2322    2319    2328       6
    2316    2322    2319    2331       6    2334    2340    2337    2343       6
    2334    2340    2337    2346       6    2334    2340    2337    2349       6
    2352    2358    2355    2361       6    2352    2358    2355    2364       6
    2352    2358    2355    2367       6    2370    2376    2373    2379       6
    2370    2376    2373    2382       6    2370    2376    2373    2385       6
    2388    2394    2391    2397       6    2388    2394    2391    2400       6
    2388    2394    2391    2403       6    2406    2412    2409    2415       6
    2406    2412    2409    2418       6    2406    2412    2409    2421       6
    2424    2430    2427    2433       6    2424    2430    2427    2436       6
    2424    2430    2427    2439       6    2442    2448    2445    2451       6
    2442    2448    2445    2454       6    2442    2448    2445    2457       6
    2460    2466    2463    2469       6    2460    2466    2463    2472       6
    2460    2466    2463    2475       6    2478    2484    2481    2487       6
    2478    2484    2481    2490       6    2478    2484    2481    2493       6
    2496    2502    2499    2505       6    2496    2502    2499    2508       6
    2496    2502    2499    2511       6    2514    2520    2517    2523       6
    2514    2520    2517    2526       6    2514    2520    2517    2529       6
    2532    2538    2535    2541       6    2532    2538    2535    2544       6
    2532    2538    2535    2547       6    2550    2556    2553    2559       6
    2550    2556    2553    2562       6    2550    2556    2553    2565       6
    2568    2574    2571    2577       6    2568    2574    2571    2580       6
    2568    2574    2571    2583       6    2586    2592    2589    2595       6
    2586    2592    2589    2598       6    2586    2592    2589    2601       6
    2604    2610    2607    2613       6    2604    2610    2607    2616       6
    2604    2610    2607    2619       6    2622    2628    2625    2631       6
    2622    2628    2625    2634       6    2622    2628    2625    2637       6
    2640    2646    2643    2649       6    2640    2646    2643    2652       6
    2640    2646    2643    2655       6    2658    2664    2661    2667       6
    2658    2664    2661    2670       6    2658    2664    2661    2673       6
    2676    2682    2679    2685       6    2676    2682    2679    2688       6
    2676    2682    2679    2691       6    2694    2700    2697    2703       6
    2694    2700    2697    2706       6    2694    2700    2697    2709       6
    2712    2718    2715    2721       6    2712    2718    2715    2724       6
    2712    2718    2715    2727       6    2730    2736    2733    2739       6
    2730    2736    2733    2742       6    2730    2736    2733    2745       6
    2748    2754    2751    2757       6    2748    2754    2751    2760       6
    2748    2754    2751    2763       6    2766    2772    2769    2775       6
    2766    2772    2769    2778       6    2766    2772    2769    2781       6
    2784    2790    2787    2793       6    2784    2790    2787    2796       6
    2784    2790    2787    2799       6    2802    2808    2805    2811       6
    2802    2808    2805    2814       6    2802    2808    2805    2817       6
    2820    2826    2823    2829       6    2820    2826    2823    2832       6
    2820    2826    2823    2835       6    2838    2844    2841    2847       6
    2838    2844    2841    2850       6    2838    2844    2841    2853       6
    2856    2862    2859    2865       6    2856    2862    2859    2868       6
    2856    2862    2859    2871       6    2874    2880    2877    2883       6
    2874    2880    2877    2886       6    2874    2880    2877    2889       6
    2892    2898    2895    2901       6    2892    2898    2895    2904       6
    2892    2898    2895    2907       6    2910    2916    2913    2919       6
    2910    2916    2913    2922       6    2910    2916    2913    2925       6
    2928    2934    2931    2937       6    2928    2934    2931    2940       6
    2928    2934    2931    2943       6    2946    2952    2949    2955       6
    2946    2952    2949    2958       6    2946    2952    2949    2961       6
    2964    2970    2967    2973       6    2964    2970    2967    2976       6
    2964    2970    2967    2979       6    2982    2988    2985    2991       6
    2982    2988    2985    2994       6    2982    2988    2985    2997       6
    3000    3006    3003    3009       6    3000    3006    3003    3012       6
    3000    3006    3003    3015       6    3018    3024    3021    3027       6
    3018    3024    3021    3030       6    3018    3024    3021    3033       6
    3036    3042    3039    3045       6    3036    3042    3039    3048       6
    3036    3042    3039    3051       6    3054    3060    3057    3063       6
    3054    3060    3057    3066       6    3054    3060    3057    3069       6
    3072    3078    3075    3081       6    3072    3078    3075    3084       6
    3072    3078    3075    3087       6    3090    3096    3093    3099       6
    3090    3096    3093    3102       6    3090    3096    3093    3105       6
    3108    3114    3111    3117       6    3108    3114    3111    3120       6
    3108    3114    3111    3123       6    3126    3132    3129    3135       6
    3126    3132    3129    3138       6    3126    3132    3129    3141       6
    3144    3150    3147    3153       6    3144    3150    3147    3156       6
    3144    3150    3147    3159       6    3162    3168    3165    3171       6
    3162    3168    3165    3174       6    3162    3168    3165    3177       6
    3180    3186    3183    3189       6    3180    3186    3183    3192       6
    3180    3186    3183    3195       6    3198    3204    3201    3207       6
    3198    3204    3201    3210       6    3198    3204    3201    3213       6
    3216    3222    3219    3225       6    3216    3222    3219    3228       6
    3216    3222    3219    3231       6    3234    3240    3237    3243       6
    3234    3240    3237    3246       6    3234    3240    3237    3249       6
    3252    3258    3255    3261       6    3252    3258    3255    3264       6
    3252    3258    3255    3267       6    3270    3276    3273    3279       6
    3270    3276    3273    3282       6    3270    3276    3273    3285       6
    3288    3294    3291    3297       6    3288    3294    3291    3300       6
    3288    3294    3291    3303       6    3306    3312    3309    3315       6
    3306    3312    3309    3318       6    3306    3312    3309    3321       6
    3324    3330    3327    3333       6    3324    3330    3327    3336       6
    3324    3330    3327    3339       6    3342    3348    3345    3351       6
    3342    3348    3345    3354       6    3342    3348    3345    3357       6
    3360    3366    3363    3369       6    3360    3366    3363    3372       6
    3360    3366    3363    3375       6    3378    3384    3381    3387       6
    3378    3384    3381    3390       6    3378    3384    3381    3393       6
    3396    3402    3399    3405       6    3396    3402    3399    3408       6
    3396    3402    3399    3411       6    3414    3420    3417    3423       6
    3414    3420    3417    3426       6    3414    3420    3417    3429       6
    3432    3438    3435    3441       6    3432    3438    3435    3444       6
    3432    3438    3435    3447       6    3450    3456    3453    3459       6
    3450    3456    3453    3462       6    3450    3456    3453    3465       6
    3468    3474    3471    3477       6    3468    3474    3471    3480       6
    3468    3474    3471    3483       6    3486    3492    3489    3495       6
    3486    3492    3489    3498       6    3486    3492    3489    3501       6
    3504    3510    3507    3513       6    3504    3510    3507    3516       6
    3504    3510    3507    3519       6    3522    3528    3525    3531       6
    3522    3528    3525    3534       6    3522    3528    3525    3537       6
    3540    3546    3543    3549       6    3540    3546    3543    3552       6
    3540    3546    3543    3555       6    3558    3564    3561    3567       6
    3558    3564    3561    3570       6    3558    3564    3561    3573       6
    3576    3582    3579    3585       6    3576    3582    3579    3588       6
    3576    3582    3579    3591       6    3594    3600    3597    3603       6
    3594    3600    3597    3606       6    3594    3600    3597    3609       6
    3612    3618    3615    3621       6    3612    3618    3615    3624       6
    3612    3618    3615    3627       6    3630    3636    3633    3639       6
    3630    3636    3633    3642       6    3630    3636    3633    3645       6
    3648    3654    3651    3657       6    3648    3654    3651    3660       6
    3648    3654    3651    3663       6    3666    3672    3669    3675       6
    3666    3672    3669    3678       6    3666    3672    3669    3681       6
    3684    3690    3687    3693       6    3684    3690    3687    3696       6
    3684    3690    3687    3699       6    3702    3708    3705    3711       6
    3702    3708    3705    3714       6    3702    3708    3705    3717       6
    3720    3726    3723    3729       6    3720    3726    3723    3732       6
    3720    3726    3723    3735       6    3738    3744    3741    3747       6
    3738    3744    3741    3750       6    3738    3744    3741    3753       6
    3756    3762    3759    3765       6    3756    3762    3759    3768       6
    3756    3762    3759    3771       6    3774    3780    3777    3783       6
    3774    3780    3777    3786       6    3774    3780    3777    3789       6
    3792    3798    3795    3801       6    3792    3798    3795    3804       6
    3792    3798    3795    3807       6    3810    3816    3813    3819       6
    3810    3816    3813    3822       6    3810    3816    3813    3825       6
    3828    3834    3831    3837       6    3828    3834    3831    3840       6
    3828    3834    3831    3843       6    3846    3852    3849    3855       6
    3846    3852    3849    3858       6    3846    3852    3849    3861       6
    3864    3870    3867    3873       6    3864    3870    3867    3876       6
    3864    3870    3867    3879       6    3882    3888    3885    3891       6
    3882    3888    3885    3894       6    3882    3888    3885    3897       6
    3900    3906    3903    3909       6    3900    3906    3903    3912       6
    3900    3906    3903    3915       6    3918    3924    3921    3927       6
    3918    3924    3921    3930       6    3918    3924    3921    3933       6
    3936    3942    3939    3945       6    3936    3942    3939    3948       6
    3936    3942    3939    3951       6    3954    3960    3957    3963       6
    3954    3960    3957    3966       6    3954    3960    3957    3969       6
    3972    3978    3975    3981       6    3972    3978    3975    3984       6
    3972    3978    3975    3987       6    3990    3996    3993    3999       6
    3990    3996    3993    4002       6    3990    3996    3993    4005       6
    4008    4014    4011    4017       6    4008    4014    4011    4020       6
    4008    4014    4011    4023       6    4026    4032    4029    4035       6
    4026    4032    4029    4038       6    4026    4032    4029    4041       6
    4044    4050    4047    4053       6    4044    4050    4047    4056       6
    4044    4050    4047    4059       6    4062    4068    4065    4071       6
    4062    4068    4065    4074       6    4062    4068    4065    4077       6
    4080    4086    4083    4089       6    4080    4086    4083    4092       6
    4080    4086    4083    4095       6    4098    4104    4101    4107       6
    4098    4104    4101    4110       6    4098    4104    4101    4113       6
    4116    4122    4119    4125       6    4116    4122    4119    4128       6
    4116    4122    4119    4131       6    4134    4140    4137    4143       6
    4134    4140    4137    4146       6    4134    4140    4137    4149       6
    4152    4158    4155    4161       6    4152    4158    4155    4164       6
    4152    4158    4155    4167       6    4170    4176    4173    4179       6
    4170    4176    4173    4182       6    4170    4176    4173    4185       6
    4188    4194    4191    4197       6    4188    4194    4191    4200       6
    4188    4194    4191    4203       6    4206    4212    4209    4215       6
    4206    4212    4209    4218       6    4206    4212    4209    4221       6
    4224    4230    4227    4233       6    4224    4230    4227    4236       6
    4224    4230    4227    4239       6    4242    4248    4245    4251       6
    4242    4248    4245    4254       6    4242    4248    4245    4257       6
    4260    4266    4263    4269       6    4260    4266    4263    4272       6
    4260    4266    4263    4275       6    4278    4284    4281    4287       6
    4278    4284    4281    4290       6    4278    4284    4281    4293       6
    4296    4302    4299    4305       6    4296    4302    4299    4308       6
    4296    4302    4299    4311       6    4314    4320    4317    4323       6
    4314    4320    4317    4326       6    4314    4320    4317    4329       6
    4332    4338    4335    4341       6    4332    4338    4335    4344       6
    4332    4338    4335    4347       6    4350    4356    4353    4359       6
    4350    4356    4353    4362       6    4350    4356    4353    4365       6
    4368    4374    4371    4377       6    4368    4374    4371    4380       6
    4368    4374    4371    4383       6    4386    4392    4389    4395       6
    4386    4392    4389    4398       6    4386    4392    4389    4401       6
    4404    4410    4407    4413       6    4404    4410    4407    4416       6
    4404    4410    4407    4419       6    4422    4428    4425    4431       6
    4422    4428    4425    4434       6    4422    4428    4425    4437       6
    4440    4446    4443    4449       6    4440    4446    4443    4452       6
    4440    4446    4443    4455       6    4458    4464    4461    4467       6
    4458    4464    4461    4470       6    4458    4464    4461    4473       6
    4476    4482    4479    4485       6    4476    4482    4479    4488       6
    4476    4482    4479    4491       6    4494    4500    4497    4503       6
    4494    4500    4497    4506       6    4494    4500    4497    4509       6
    4512    4518    4515    4521       6    4512    4518    4515    4524       6
    4512    4518    4515    4527       6    4530    4536    4533    4539       6
    4530    4536    4533    4542       6    4530    4536    4533    4545       6
    4548    4554    4551    4557       6    4548    4554    4551    4560       6
    4548    4554    4551    4563       6    4566    4572    4569    4575       6
    4566    4572    4569    4578       6    4566    4572    4569    4581       6
    4584    4590    4587    4593       6    4584    4590    4587    4596       6
    4584    4590    4587    4599       6    4602    4608    4605    4611       6
    4602    4608    4605    4614       6    4602    4608    4605    4617       6
    4620    4626    4623    4629       6    4620    4626    4623    4632       6
    4620    4626    4623    4635       6    4638    4644    4641    4647       6
    4638    4644    4641    4650       6    4638    4644    4641    4653       6
    4656    4662    4659    4665       6    4656    4662    4659    4668       6
    4656    4662    4659    4671       6    4674    4680    4677    4683       6
    4674    4680    4677    4686       6    4674    4680    4677    4689       6
    4692    4698    4695    4701       6    4692    4698    4695    4704       6
    4692    4698    4695    4707       6    4710    4716    4713    4719       6
    4710    4716    4713    4722       6    4710    4716    4713    4725       6
    4728    4734    4731    4737       6    4728    4734    4731    4740       6
    4728    4734    4731    4743       6    4746    4752    4749    4755       6
    4746    4752    4749    4758       6    4746    4752    4749    4761       6
    4764    4770    4767    4773       6    4764    4770    4767    4776       6
    4764    4770    4767    4779       6    4782    4788    4785    4791       6
    4782    4788    4785    4794       6    4782    4788    4785    4797       6
    4800    4806    4803    4809       6    4800    4806    4803    4812       6
    4800    4806    4803    4815       6    4818    4824    4821    4827       6
    4818    4824    4821    4830       6    4818    4824    4821    4833       6
    4836    4842    4839    4845       6    4836    4842    4839    4848       6
    4836    4842    4839    4851       6    4854    4860    4857    4863       6
    4854    4860    4857    4866       6    4854    4860    4857    4869       6
    4872    4878    4875    4881       6    4872    4878    4875    4884       6
    4872    4878    4875    4887       6    4890    4896    4893    4899       6
    4890    4896    4893    4902       6    4890    4896    4893    4905       6
    4908    4914    4911    4917       6    4908    4914    4911    4920       6
    4908    4914    4911    4923       6    4926    4932    4929    4935       6
    4926    4932    4929    4938       6    4926    4932    4929    4941       6
    4944    4950    4947    4953       6    4944    4950    4947    4956       6
    4944    4950    4947    4959       6    4962    4968    4965    4971       6
    4962    4968    4965    4974       6    4962    4968    4965    4977       6
    4980    4986    4983    4989       6    4980    4986    4983    4992       6
    4980    4986    4983    4995       6    4998    5004    5001    5007       6
    4998    5004    5001    5010       6    4998    5004    5001    5013       6
    5016    5022    5019    5025       6    5016    5022    5019    5028       6
    5016    5022    5019    5031       6    5034    5040    5037    5043       6
    5034    5040    5037    5046       6    5034    5040    5037    5049       6
    5052    5058    5055    5061       6    5052    5058    5055    5064       6
    5052    5058    5055    5067       6    5070    5076    5073    5079       6
    5070    5076    5073    5082       6    5070    5076    5073    5085       6
    5088    5094    5091    5097       6    5088    5094    5091    5100       6
    5088    5094    5091    5103       6    5106    5112    5109    5115       6
    5106    5112    5109    5118       6    5106    5112    5109    5121       6
    5124    5130    5127    5133       6    5124    5130    5127    5136       6
    5124    5130    5127    5139       6    5142    5148    5145    5151       6
    5142    5148    5145    5154       6    5142    5148    5145    5157       6
    5160    5166    5163    5169       6    5160    5166    5163    5172       6
    5160    5166    5163    5175       6    5178    5184    5181    5187       6
    5178    5184    5181    5190       6    5178    5184    5181    5193       6
    5196    5202    5199    5205       6    5196    5202    5199    5208       6
    5196    5202    5199    5211       6    5214    5220    5217    5223       6
    5214    5220    5217    5226       6    5214    5220    5217    5229       6
    5232    5238    5235    5241       6    5232    5238    5235    5244       6
    5232    5238    5235    5247       6    5250    5256    5253    5259       6
    5250    5256    5253    5262       6    5250    5256    5253    5265       6
    5268    5274    5271    5277       6    5268    5274    5271    5280       6
    5268    5274    5271    5283       6    5286    5292    5289    5295       6
    5286    5292    5289    5298       6    5286    5292    5289    5301       6
    5304    5310    5307    5313       6    5304    5310    5307    5316       6
    5304    5310    5307    5319       6    5322    5328    5325    5331       6
    5322    5328    5325    5334       6    5322    5328    5325    5337       6
    5340    5346    5343    5349       6    5340    5346    5343    5352       6
    5340    5346    5343    5355       6    5358    5364    5361    5367       6
    5358    5364    5361    5370       6    5358    5364    5361    5373       6
    5376    5382    5379    5385       6    5376    5382    5379    5388       6
    5376    5382    5379    5391       6    5394    5400    5397    5403       6
    5394    5400    5397    5406       6    5394    5400    5397    5409       6
    5412    5418    5415    5421       6    5412    5418    5415    5424       6
    5412    5418    5415    5427       6    5430    5436    5433    5439       6
    5430    5436    5433    5442       6    5430    5436    5433    5445       6
    5448    5454    5451    5457       6    5448    5454    5451    5460       6
    5448    5454    5451    5463       6    5466    5472    5469    5475       6
    5466    5472    5469    5478       6    5466    5472    5469    5481       6
    5484    5490    5487    5493       6    5484    5490    5487    5496       6
    5484    5490    5487    5499       6    5502    5508    5505    5511       6
    5502    5508    5505    5514       6    5502    5508    5505    5517       6
    5520    5526    5523    5529       6    5520    5526    5523    5532       6
    5520    5526    5523    5535       6    5538    5544    5541    5547       6
    5538    5544    5541    5550       6    5538    5544    5541    5553       6
    5556    5562    5559    5565       6    5556    5562    5559    5568       6
    5556    5562    5559    5571       6    5574    5580    5577    5583       6
    5574    5580    5577    5586       6    5574    5580    5577    5589       6
    5592    5598    5595    5601       6    5592    5598    5595    5604       6
    5592    5598    5595    5607       6    5610    5616    5613    5619       6
    5610    5616    5613    5622       6    5610    5616    5613    5625       6
    5628    5634    5631    5637       6    5628    5634    5631    5640       6
    5628    5634    5631    5643       6    5646    5652    5649    5655       6
    5646    5652    5649    5658       6    5646    5652    5649    5661       6
    5664    5670    5667    5673       6    5664    5670    5667    5676       6
    5664    5670    5667    5679       6    5682    5688    5685    5691       6
    5682    5688    5685    5694       6    5682    5688    5685    5697       6
    5700    5706    5703    5709       6    5700    5706    5703    5712       6
    5700    5706    5703    5715       6    5718    5724    5721    5727       6
    5718    5724    5721    5730       6    5718    5724    5721    5733       6
    5736    5742    5739    5745       6    5736    5742    5739    5748       6
    5736    5742    5739    5751       6    5754    5760    5757    5763       6
    5754    5760    5757    5766       6    5754    5760    5757    5769       6
    5772    5778    5775    5781       6    5772    5778    5775    5784       6
    5772    5778    5775    5787       6    5790    5796    5793    5799       6
    5790    5796    5793    5802       6    5790    5796    5793    5805       6
    5808    5814    5811    5817       6    5808    5814    5811    5820       6
    5808    5814    5811    5823       6    5826    5832    5829    5835       6
    5826    5832    5829    5838       6    5826    5832    5829    5841       6
    5844    5850    5847    5853       6    5844    5850    5847    5856       6
    5844    5850    5847    5859       6    5862    5868    5865    5871       6
    5862    5868    5865    5874       6    5862    5868    5865    5877       6
    5880    5886    5883    5889       6    5880    5886    5883    5892       6
    5880    5886    5883    5895       6    5898    5904    5901    5907       6
    5898    5904    5901    5910       6    5898    5904    5901    5913       6
    5916    5922    5919    5925       6    5916    5922    5919    5928       6
    5916    5922    5919    5931       6    5934    5940    5937    5943       6
    5934    5940    5937    5946       6    5934    5940    5937    5949       6
    5952    5958    5955    5961       6    5952    5958    5955    5964       6
    5952    5958    5955    5967       6    5970    5976    5973    5979       6
    5970    5976    5973    5982       6    5970    5976    5973    5985       6
    5988    5994    5991    5997       6    5988    5994    5991    6000       6
    5988    5994    5991    6003       6    6006    6012    6009    6015       6
    6006    6012    6009    6018       6    6006    6012    6009    6021       6
    6024    6030    6027    6033       6    6024    6030    6027    6036       6
    6024    6030    6027    6039       6    6042    6048    6045    6051       6
    6042    6048    6045    6054       6    6042    6048    6045    6057       6
    6060    6066    6063    6069       6    6060    6066    6063    6072       6
    6060    6066    6063    6075       6    6078    6084    6081    6087       6
    6078    6084    6081    6090       6    6078    6084    6081    6093       6
    6096    6102    6099    6105       6    6096    6102    6099    6108       6
    6096    6102    6099    6111       6    6114    6120    6117    6123       6
    6114    6120    6117    6126       6    6114    6120    6117    6129       6
    6132    6138    6135    6141       6    6132    6138    6135    6144       6
    6132    6138    6135    6147       6    6150    6156    6153    6159       6
    6150    6156    6153    6162       6    6150    6156    6153    6165       6
    6168    6174    6171    6177       6    6168    6174    6171    6180       6
    6168    6174    6171    6183       6    6186    6192    6189    6195       6
    6186    6192    6189    6198       6    6186    6192    6189    6201       6
    6204    6210    6207    6213       6    6204    6210    6207    6216       6
    6204    6210    6207    6219       6    6222    6228    6225    6231       6
    6222    6228    6225    6234       6    6222    6228    6225    6237       6
      51      63     -75    -111       8      48      60     -72    -108       8
      45      57     -69    -105       8      42      54     -66    -102       8
      33      75     -63     -99       8      30      72     -60     -96       8
      27      69     -57     -93       8      24      66     -54     -90       8
      81      87     -15    -117       8      78      84     -12    -114       8
%FLAG DIHEDRALS_WITHOUT_HYDROGEN                                                
%FORMAT(10I8)                                                                   
      63      75      51      87       1      60      30      33      63       1
      60      72      48      84       1      57      69      45      81       1
      54      24      27      57       1      54      66      42      78       1
      51      39      45      69       1      51      39      45      81       1
      51      87     -15      81       2      48      36      42      66       1
      48      36      42      78       1      48      84     -12      78       2
      45      39      51      75       1      45      39      51      87       1
      45      81     -15      87       2      42      36      48      72       1
      42      36      48      84       1      42      78     -12      84       2
      39      21      27      57       1      39      21      33      63       1
      39      45     -69      57       1      39      51     -75      63       1
      36      18      24      54       1      36      18      30      60       1
      36      42     -66      54       1      36      48     -72      60       1
      33      21      27      57       1      33      21      39      45       1
      33      21      39      51       1      33      30      18      36       1
      33      30      60      72       1      33      63     -75      51       1
      30      18      24      54       1      30      18      36      42       1
      30      18      36      48       1      30      33      21      39       1
      30      33      63      75       1      30      60     -72      48       1
      27      21      33      30       1      27      21      33      63       1
      27      21      39      45       1      27      21      39      51       1
      27      24     -18      30       1      27      24      18      36       1
      27      24      54      66       1      27      57     -69      45       1
      24      18      30      33       1      24      18      30      60       1
      24      18      36      42       1      24      18      36      48       1
      24      27     -21      33       1      24      27      21      39       1
      24      27      57      69       1      24      54     -66      42       1
      21      27      24      54       1      21      27      57      69       1
      21      33      30      60       1      21      33      63      75       1
      21      39     -45      69       1      21      39      45      81       1
      21      39     -51      75       1      21      39      51      87       1
      18      24      27      21       1      18      24      27      57       1
      18      24      54      66       1      18      30     -33      21       1
      18      30      33      63       1      18      30      60      72       1
      18      36     -42      66       1      18      36      42      78       1
      18      36     -48      72       1      18      36      48      84       1
      15      81      45      39       3      15      81      45      69       3
      15      87     -51      39       3      15      87      51      75       3
      12      78      42      36       3      12      78      42      66       3
      12      84     -48      36       3      12      84      48      72       3
       9      87      15      81       2       9      87      51      39       5
       9      87      51      75       5       6      84      12      78       2
       6      84      48      36       5       6      84      48      72       5
       3      81      15      87       2       3      81      45      39       5
       3      81      45      69       5       0      78      12      84       2
       0      78      42      36       5       0      78      42      66       5
      51      15     -87      -9       7      48      12     -84      -6       7
      45      15     -81      -3       7       0      78     -12     -42       7
      87      39     -51     -75       8      84      36     -48     -72       8
      81      39     -45     -69       8      78      36     -42     -66       8
      21      45     -39     -51       8      18      42     -36     -48       8
      21      30     -33     -63       8      18      33     -30     -60       8
      21      24     -27     -57       8      18      27     -24     -54       8
      27      33     -21     -39       8      24      30     -18     -36       8
%FLAG EXCLUDED_ATOMS_LIST                                                       
%FORMAT(10I8)                                                                   
       5      13      15      23      27      29      39       6      14      16
      24      28      30      40       5      13      17      25      27      29
      39       6      14      18      26      28      30      40      13      15
      17      23      25      27      29      39      14      16      18      24
      26      28      30      40       8       9      10      11      12      13
      15      17      19      20      21      22      23      25      27      29
      31      33       9      10      11      12      14      16      18      19
      20      21      22      24      26      28      30      32      34      10
      11      12      13      14      15      17      19      20      21      23
      24      31      32      35      11      12      13      14      16      18
      19      20      22      23      24      31      32      36      12      13
      14      15      17      19      21      22      25      26      33      34
      37      13      14      16      18      20      21      22      25      26
      33      34      38      15      17      19      21      23      25      27
      29      35      37      16      18      20      22      24      26      28
      30      36      38      17      19      23      25      27      29      31
      35      39      18      20      24      26      28      30      32      36
      40      21      23      25      27      29      33      37      39      22
      24      26      28      30      34      38      40      20      23      27
      31      35      24      28      32      36      22      25      29      33
      37      26      30      34      38      27      31      35      28      32
      36      29      33      37      30      34      38      29      35      39
      30      36      40      37      39      38      40      35      36      37
      38       0       0       0       0       0       0      42      43      44
      45      46      43      44      45      46      44      45      46      45
      46      46       0      48      49      50      51      52      49      50
      51      52      50      51      52      51      52      52       0      54
      55      56      57      58      55      56      57      58      56      57
      58      57      58      58       0      60      61      62      63      64
      61      62      63      64      62      63      64      63      64      64
       0      66      67      68      69      70      67      68      69      70
      68      69      70      69      70      70       0      72      73      74
      75      76      73      74      75      76      74      75      76      75
      76      76       0      78      79      80      81      82      79      80
      81      82      80      81      82      81      82      82       0      84
      85      86      87      88      85      86      87      88      86      87
      88      87      88      88       0      90      91      92      93      94
      91      92      93      94      92      93      94      93      94      94
       0      96      97      98      99     100      97      98      99     100
      98      99     100      99     100     100       0     102     103     104
     105     106     103     104     105     106     104     105     106     105
     106     106       0     108     109     110     111     112     109     110
     111     112     110     111     112     111     112     112       0     114
     115     116     117     118     115     116     117     118     116     117
     118     117     118     118       0     120     121     122     123     124
     121     122     123     124     122     123     124     123     124     124
       0     126     127     128     129     130     127     128     129     130
     128     129     130     129     130     130       0     132     133     134
     135     136     133     134     135     136     134     135     136     135
     136     136       0     138     139     140     141     142     139     140
     141     142     140     141     142     141     142     142       0     144
     145     146     147     148     145     146     147     148     146     147
     148     147     148     148       0     150     151     152     153     154
     151     152     153     154     152     153     154     153     154     154
       0     156     157     158     159     160     157     158     159     160
     158     159     160     159     160     160       0     162     163     164
     165     166     163     164     165     166     164     165     166     165
     166     166       0     168     169     170     171     172     169     170
     171     172     170     171     172     171     172     172       0     174
     175     176     177     178     175     176     177     178     176     177
     178     177     178     178       0     180     181     182     183     184
     181     182     183     184     182     183     184     183     184     184
       0     186     187     188     189     190     187     188     189     190
     188     189     190     189     190     190       0     192     193     194
     195     196     193     194     195     196     194     195     196     195
     196     196       0     198     199     200     201     202     199     200
     201     202     200     201     202     201     202     202       0     204
     205     206     207     208     205     206     207     208     206     207
     208     207     208     208       0     210     211     212     213     214
     211     212     213     214     212     213     214     213     214     214
       0     216     217     218     219     220     217     218     219     220
     218     219     220     219     220     220       0     222     223     224
     225     226     223     224     225     226     224     225     226     225
     226     226       0     228     229     230     231     232     229     230
     231     232     230     231     232     231     232     232       0     234
     235     236     237     238     235     236     237     238     236     237
     238     237     238     238       0     240     241     242     243     244
     241     242     243     244     242     243     244     243     244     244
       0     246     247     248     249     250     247     248     249     250
     248     249     250     249     250     250       0     252     253     254
     255     256     253     254     255     256     254     255     256     255
     256     256       0     258     259     260     261     262     259     260
     261     262     260     261     262     261     262     262       0     264
     265     266     267     268     265     266     267     268     266     267
     268     267     268     268       0     270     271     272     273     274
     271     272     273     274     272     273     274     273     274     274
       0     276     277     278     279     280     277     278     279     280
     278     279     280     279     280     280       0     282     283     284
     285     286     283     284     285     286     284     285     286     285
     286     286       0     288     289     290     291     292     289     290
     291     292     290     291     292     291     292     292       0     294
     295     296     297     298     295     296     297     298     296     297
     298     297     298     298       0     300     301     302     303     304
     301     302     303     304     302     303     304     303     304     304
       0     306     307     308     309     310     307     308     309     310
     308     309     310     309     310     310       0     312     313     314
     315     316     313     314     315     316     314     315     316     315
     316     316       0     318     319     320     321     322     319     320
     321     322     320     321     322     321     322     322       0     324
     325     326     327     328     325     326     327     328     326     327
     328     327     328     328       0     330     331     332     333     334
     331     332     333     334     332     333     334     333     334     334
       0     336     337     338     339     340     337     338     339     340
     338     339     340     339     340     340       0     342     343     344
     345     346     343     344     345     346     344     345     346     345
     346     346       0     348     349     350     351     352     349     350
     351     352     350     351     352     351     352     352       0     354
     355     356     357     358     355     356     357     358     356     357
     358     357     358     358       0     360     361     362     363     364
     361     362     363     364     362     363     364     363     364     364
       0     366     367     368     369     370     367     368     369     370
     368     369     370     369     370     370       0     372     373     374
     375     376     373     374     375     376     374     375     376     375
     376     376       0     378     379     380     381     382     379     380
     381     382     380     381     382     381     382     382       0     384
     385     386     387     388     385     386     387     388     386     387
     388     387     388     388       0     390     391     392     393     394
     391     392     393     394     392     393     394     393     394     394
       0     396     397     398     399     400     397     398     399     400
     398     399     400     399     400     400       0     402     403     404
     405     406     403     404     405     406     404     405     406     405
     406     406       0     408     409     410     411     412     409     410
     411     412     410     411     412     411     412     412       0     414
     415     416     417     418     415     416     417     418     416     417
     418     417     418     418       0     420     421     422     423     424
     421     422     423     424     422     423     424     423     424     424
       0     426     427     428     429     430     427     428     429     430
     428     429     430     429     430     430       0     432     433     434
     435     436     433     434     435     436     434     435     436     435
     436     436       0     438     439     440     441     442     439     440
     441     442     440     441     442     441     442     442       0     444
     445     446     447     448     445     446     447     448     446     447
     448     447     448     448       0     450     451     452     453     454
     451     452     453     454     452     453     454     453     454     454
       0     456     457     458     459     460     457     458     459     460
     458     459     460     459     460     460       0     462     463     464
     465     466     463     464     465     466     464     465     466     465
     466     466       0     468     469     470     471     472     469     470
     471     472     470     471     472     471     472     472       0     474
     475     476     477     478     475     476     477     478     476     477
     478     477     478     478       0     480     481     482     483     484
     481     482     483     484     482     483     484     483     484     484
       0     486     487     488     489     490     487     488     489     490
     488     489     490     489     490     490       0     492     493     494
     495     496     493     494     495     496     494     495     496     495
     496     496       0     498     499     500     501     502     499     500
     501     502     500     501     502     501     502     502       0     504
     505     506     507     508     505     506     507     508     506     507
     508     507     508     508       0     510     511     512     513     514
     511     512     513     514     512     513     514     513     514     514
       0     516     517     518     519     520     517     518     519     520
     518     519     520     519     520     520       0     522     523     524
     525     526     523     524     525     526     524     525     526     525
     526     526       0     528     529     530     531     532     529     530
     531     532     530     531     532     531     532     532       0     534
     535     536     537     538     535     536     537     538     536     537
     538     537     538     538       0     540     541     542     543     544
     541     542     543     544     542     543     544     543     544     544
       0     546     547     548     549     550     547     548     549     550
     548     549     550     549     550     550       0     552     553     554
     555     556     553     554     555     556     554     555     556     555
     556     556       0     558     559     560     561     562     559     560
     561     562     560     561     562     561     562     562       0     564
     565     566     567     568     565     566     567     568     566     567
     568     567     568     568       0     570     571     572     573     574
     571     572     573     574     572     573     574     573     574     574
       0     576     577     578     579     580     577     578     579     580
     578     579     580     579     580     580       0     582     583     584
     585     586     583     584     585     586     584     585     586     585
     586     586       0     588     589     590     591     592     589     590
     591     592     590     591     592     591     592     592       0     594
     595     596     597     598     595     596     597     598     596     597
     598     597     598     598       0     600     601     602     603     604
     601     602     603     604     602     603     604     603     604     604
       0     606     607     608     609     610     607     608     609     610
     608     609     610     609     610     610       0     612     613     614
     615     616     613     614     615     616     614     615     616     615
     616     616       0     618     619     620     621     622     619     620
     621     622     620     621     622     621     622     622       0     624
     625     626     627     628     625     626     627     628     626     627
     628     627     628     628       0     630     631     632     633     634
     631     632     633     634     632     633     634     633     634     634
       0     636     637     638     639     640     637     638     639     640
     638     639     640     639     640     640       0     642     643     644
     645     646     643     644     645     646     644     645     646     645
     646     646       0     648     649     650     651     652     649     650
     651     652     650     651     652     651     652     652       0     654
     655     656     657     658     655     656     657     658     656     657
     658     657     658     658       0     660     661     662     663     664
     661     662     663     664     662     663     664     663     664     664
       0     666     667     668     669     670     667     668     669     670
     668     669     670     669     670     670       0     672     673     674
     675     676     673     674     675     676     674     675     676     675
     676     676       0     678     679     680     681     682     679     680
     681     682     680     681     682     681     682     682       0     684
     685     686     687     688     685     686     687     688     686     687
     688     687     688     688       0     690     691     692     693     694
     691     692     693     694     692     693     694     693     694     694
       0     696     697     698     699     700     697     698     699     700
     698     699     700     699     700     700       0     702     703     704
     705     706     703     704     705     706     704     705     706     705
     706     706       0     708     709     710     711     712     709     710
     711     712     710     711     712     711     712     712       0     714
     715     716     717     718     715     716     717     718     716     717
     718     717     718     718       0     720     721     722     723     724
     721     722     723     724     722     723     724     723     724     724
       0     726     727     728     729     730     727     728     729     730
     728     729     730     729     730     730       0     732     733     734
     735     736     733     734     735     736     734     735     736     735
     736     736       0     738     739     740     741     742     739     740
     741     742     740     741     742     741     742     742       0     744
     745     746     747     748     745     746     747     748     746     747
     748     747     748     748       0     750     751     752     753     754
     751     752     753     754     752     753     754     753     754     754
       0     756     757     758     759     760     757     758     759     760
     758     759     760     759     760     760       0     762     763     764
     765     766     763     764     765     766     764     765     766     765
     766     766       0     768     769     770     771     772     769     770
     771     772     770     771     772     771     772     772       0     774
     775     776     777     778     775     776     777     778     776     777
     778     777     778     778       0     780     781     782     783     784
     781     782     783     784     782     783     784     783     784     784
       0     786     787     788     789     790     787     788     789     790
     788     789     790     789     790     790       0     792     793     794
     795     796     793     794     795     796     794     795     796     795
     796     796       0     798     799     800     801     802     799     800
     801     802     800     801     802     801     802     802       0     804
     805     806     807     808     805     806     807     808     806     807
     808     807     808     808       0     810     811     812     813     814
     811     812     813     814     812     813     814     813     814     814
       0     816     817     818     819     820     817     818     819     820
     818     819     820     819     820     820       0     822     823     824
     825     826     823     824     825     826     824     825     826     825
     826     826       0     828     829     830     831     832     829     830
     831     832     830     831     832     831     832     832       0     834
     835     836     837     838     835     836     837     838     836     837
     838     837     838     838       0     840     841     842     843     844
     841     842     843     844     842     843     844     843     844     844
       0     846     847     848     849     850     847     848     849     850
     848     849     850     849     850     850       0     852     853     854
     855     856     853     854     855     856     854     855     856     855
     856     856       0     858     859     860     861     862     859     860
     861     862     860     861     862     861     862     862       0     864
     865     866     867     868     865     866     867     868     866     867
     868     867     868     868       0     870     871     872     873     874
     871     872     873     874     872     873     874     873     874     874
       0     876     877     878     879     880     877     878     879     880
     878     879     880     879     880     880       0     882     883     884
     885     886     883     884     885     886     884     885     886     885
     886     886       0     888     889     890     891     892     889     890
     891     892     890     891     892     891     892     892       0     894
     895     896     897     898     895     896     897     898     896     897
     898     897     898     898       0     900     901     902     903     904
     901     902     903     904     902     903     904     903     904     904
       0     906     907     908     909     910     907     908     909     910
     908     909     910     909     910     910       0     912     913     914
     915     916     913     914     915     916     914     915     916     915
     916     916       0     918     919     920     921     922     919     920
     921     922     920     921     922     921     922     922       0     924
     925     926     927     928     925     926     927     928     926     927
     928     927     928     928       0     930     931     932     933     934
     931     932     933     934     932     933     934     933     934     934
       0     936     937     938     939     940     937     938     939     940
     938     939     940     939     940     940       0     942     943     944
     945     946     943     944     945     946     944     945     946     945
     946     946       0     948     949     950     951     952     949     950
     951     952     950     951     952     951     952     952       0     954
     955     956     957     958     955     956     957     958     956     957
     958     957     958     958       0     960     961     962     963     964
     961     962     963     964     962     963     964     963     964     964
       0     966     967     968     969     970     967     968     969     970
     968     969     970     969     970     970       0     972     973     974
     975     976     973     974     975     976     974     975     976     975
     976     976       0     978     979     980     981     982     979     980
     981     982     980     981     982     981     982     982       0     984
     985     986     987     988     985     986     987     988     986     987
     988     987     988     988       0     990     991     992     993     994
     991     992     993     994     992     993     994     993     994     994
       0     996     997     998     999    1000     997     998     999    1000
     998     999    1000     999    1000    1000       0    1002    1003    1004
    1005    1006    1003    1004    1005    1006    1004    1005    1006    1005
    1006    1006       0    1008    1009    1010    1011    1012    1009    1010
    1011    1012    1010    1011    1012    1011    1012    1012       0    1014
    1015    1016    1017    1018    1015    1016    1017    1018    1016    1017
    1018    1017    1018    1018       0    1020    1021    1022    1023    1024
    1021    1022    1023    1024    1022    1023    1024    1023    1024    1024
       0    1026    1027    1028    1029    1030    1027    1028    1029    1030
    1028    1029    1030    1029    1030    1030       0    1032    1033    1034
    1035    1036    1033    1034    1035    1036    1034    1035    1036    1035
    1036    1036       0    1038    1039    1040    1041    1042    1039    1040
    1041    1042    1040    1041    1042    1041    1042    1042       0    1044
    1045    1046    1047    1048    1045    1046    1047    1048    1046    1047
    1048    1047    1048    1048       0    1050    1051    1052    1053    1054
    1051    1052    1053    1054    1052    1053    1054    1053    1054    1054
       0    1056    1057    1058    1059    1060    1057    1058    1059    1060
    1058    1059    1060    1059    1060    1060       0    1062    1063    1064
    1065    1066    1063    1064    1065    1066    1064    1065    1066    1065
    1066    1066       0    1068    1069    1070    1071    1072    1069    1070
    1071    1072    1070    1071    1072    1071    1072    1072       0    1074
    1075    1076    1077    1078    1075    1076    1077    1078    1076    1077
    1078    1077    1078    1078       0    1080    1081    1082    1083    1084
    1081    1082    1083    1084    1082    1083    1084    1083    1084    1084
       0    1086    1087    1088    1089    1090    1087    1088    1089    1090
    1088    1089    1090    1089    1090    1090       0    1092    1093    1094
    1095    1096    1093    1094    1095    1096    1094    1095    1096    1095
    1096    1096       0    1098    1099    1100    1101    1102    1099    1100
    1101    1102    1100    1101    1102    1101    1102    1102       0    1104
    1105    1106    1107    1108    1105    1106    1107    1108    1106    1107
    1108    1107    1108    1108       0    1110    1111    1112    1113    1114
    1111    1112    1113    1114    1112    1113    1114    1113    1114    1114
       0    1116    1117    1118    1119    1120    1117    1118    1119    1120
    1118    1119    1120    1119    1120    1120       0    1122    1123    1124
    1125    1126    1123    1124    1125    1126    1124    1125    1126    1125
    1126    1126       0    1128    1129    1130    1131    1132    1129    1130
    1131    1132    1130    1131    1132    1131    1132    1132       0    1134
    1135    1136    1137    1138    1135    1136    1137    1138    1136    1137
    1138    1137    1138    1138       0    1140    1141    1142    1143    1144
    1141    1142    1143    1144    1142    1143    1144    1143    1144    1144
       0    1146    1147    1148    1149    1150    1147    1148    1149    1150
    1148    1149    1150    1149    1150    1150       0    1152    1153    1154
    1155    1156    1153    1154    1155    1156    1154    1155    1156    1155
    1156    1156       0    1158    1159    1160    1161    1162    1159    1160
    1161    1162    1160    1161    1162    1161    1162    1162       0    1164
    1165    1166    1167    1168    1165    1166    1167    1168    1166    1167
    1168    1167    1168    1168       0    1170    1171    1172    1173    1174
    1171    1172    1173    1174    1172    1173    1174    1173    1174    1174
       0    1176    1177    1178    1179    1180    1177    1178    1179    1180
    1178    1179    1180    1179    1180    1180       0    1182    1183    1184
    1185    1186    1183    1184    1185    1186    1184    1185    1186    1185
    1186    1186       0    1188    1189    1190    1191    1192    1189    1190
    1191    1192    1190    1191    1192    1191    1192    1192       0    1194
    1195    1196    1197    1198    1195    1196    1197    1198    1196    1197
    1198    1197    1198    1198       0    1200    1201    1202    1203    1204
    1201    1202    1203    1204    1202    1203    1204    1203    1204    1204
       0    1206    1207    1208    1209    1210    1207    1208    1209    1210
    1208    1209    1210    1209    1210    1210       0    1212    1213    1214
    1215    1216    1213    1214    1215    1216    1214    1215    1216    1215
    1216    1216       0    1218    1219    1220    1221    1222    1219    1220
    1221    1222    1220    1221    1222    1221    1222    1222       0    1224
    1225    1226    1227    1228    1225    1226    1227    1228    1226    1227
    1228    1227    1228    1228       0    1230    1231    1232    1233    1234
    1231    1232    1233    1234    1232    1233    1234    1233    1234    1234
       0    1236    1237    1238    1239    1240    1237    1238    1239    1240
    1238    1239    1240    1239    1240    1240       0    1242    1243    1244
    1245    1246    1243    1244    1245    1246    1244    1245    1246    1245
    1246    1246       0    1248    1249    1250    1251    1252    1249    1250
    1251    1252    1250    1251    1252    1251    1252    1252       0    1254
    1255    1256    1257    1258    1255    1256    1257    1258    1256    1257
    1258    1257    1258    1258       0    1260    1261    1262    1263    1264
    1261    1262    1263    1264    1262    1263    1264    1263    1264    1264
       0    1266    1267    1268    1269    1270    1267    1268    1269    1270
    1268    1269    1270    1269    1270    1270       0    1272    1273    1274
    1275    1276    1273    1274    1275    1276    1274    1275    1276    1275
    1276    1276       0    1278    1279    1280    1281    1282    1279    1280
    1281    1282    1280    1281    1282    1281    1282    1282       0    1284
    1285    1286    1287    1288    1285    1286    1287    1288    1286    1287
    1288    1287    1288    1288       0    1290    1291    1292    1293    1294
    1291    1292    1293    1294    1292    1293    1294    1293    1294    1294
       0    1296    1297    1298    1299    1300    1297    1298    1299    1300
    1298    1299    1300    1299    1300    1300       0    1302    1303    1304
    1305    1306    1303    1304    1305    1306    1304    1305    1306    1305
    1306    1306       0    1308    1309    1310    1311    1312    1309    1310
    1311    1312    1310    1311    1312    1311    1312    1312       0    1314
    1315    1316    1317    1318    1315    1316    1317    1318    1316    1317
    1318    1317    1318    1318       0    1320    1321    1322    1323    1324
    1321    1322    1323    1324    1322    1323    1324    1323    1324    1324
       0    1326    1327    1328    1329    1330    1327    1328    1329    1330
    1328    1329    1330    1329    1330    1330       0    1332    1333    1334
    1335    1336    1333    1334    1335    1336    1334    1335    1336    1335
    1336    1336       0    1338    1339    1340    1341    1342    1339    1340
    1341    1342    1340    1341    1342    1341    1342    1342       0    1344
    1345    1346    1347    1348    1345    1346    1347    1348    1346    1347
    1348    1347    1348    1348       0    1350    1351    1352    1353    1354
    1351    1352    1353    1354    1352    1353    1354    1353    1354    1354
       0    1356    1357    1358    1359    1360    1357    1358    1359    1360
    1358    1359    1360    1359    1360    1360       0    1362    1363    1364
    1365    1366    1363    1364    1365    1366    1364    1365    1366    1365
    1366    1366       0    1368    1369    1370    1371    1372    1369    1370
    1371    1372    1370    1371    1372    1371    1372    1372       0    1374
    1375    1376    1377    1378    1375    1376    1377    1378    1376    1377
    1378    1377    1378    1378       0    1380    1381    1382    1383    1384
    1381    1382    1383    1384    1382    1383    1384    1383    1384    1384
       0    1386    1387    1388    1389    1390    1387    1388    1389    1390
    1388    1389    1390    1389    1390    1390       0    1392    1393    1394
    1395    1396    1393    1394    1395    1396    1394    1395    1396    1395
    1396    1396       0    1398    1399    1400    1401    1402    1399    1400
    1401    1402    1400    1401    1402    1401    1402    1402       0    1404
    1405    1406    1407    1408    1405    1406    1407    1408    1406    1407
    1408    1407    1408    1408       0    1410    1411    1412    1413    1414
    1411    1412    1413    1414    1412    1413    1414    1413    1414    1414
       0    1416    1417    1418    1419    1420    1417    1418    1419    1420
    1418    1419    1420    1419    1420    1420       0    1422    1423    1424
    1425    1426    1423    1424    1425    1426    1424    1425    1426    1425
    1426    1426       0    1428    1429    1430    1431    1432    1429    1430
    1431    1432    1430    1431    1432    1431    1432    1432       0    1434
    1435    1436    1437    1438    1435    1436    1437    1438    1436    1437
    1438    1437    1438    1438       0    1440    1441    1442    1443    1444
    1441    1442    1443    1444    1442    1443    1444    1443    1444    1444
       0    1446    1447    1448    1449    1450    1447    1448    1449    1450
    1448    1449    1450    1449    1450    1450       0    1452    1453    1454
    1455    1456    1453    1454    1455    1456    1454    1455    1456    1455
    1456    1456       0    1458    1459    1460    1461    1462    1459    1460
    1461    1462    1460    1461    1462    1461    1462    1462       0    1464
    1465    1466    1467    1468    1465    1466    1467    1468    1466    1467
    1468    1467    1468    1468       0    1470    1471    1472    1473    1474
    1471    1472    1473    1474    1472    1473    1474    1473    1474    1474
       0    1476    1477    1478    1479    1480    1477    1478    1479    1480
    1478    1479    1480    1479    1480    1480       0    1482    1483    1484
    1485    1486    1483    1484    1485    1486    1484    1485    1486    1485
    1486    1486       0    1488    1489    1490    1491    1492    1489    1490
    1491    1492    1490    1491    1492    1491    1492    1492       0    1494
    1495    1496    1497    1498    1495    1496    1497    1498    1496    1497
    1498    1497    1498    1498       0    1500    1501    1502    1503    1504
    1501    1502    1503    1504    1502    1503    1504    1503    1504    1504
       0    1506    1507    1508    1509    1510    1507    1508    1509    1510
    1508    1509    1510    1509    1510    1510       0    1512    1513    1514
    1515    1516    1513    1514    1515    1516    1514    1515    1516    1515
    1516    1516       0    1518    1519    1520    1521    1522    1519    1520
    1521    1522    1520    1521    1522    1521    1522    1522       0    1524
    1525    1526    1527    1528    1525    1526    1527    1528    1526    1527
    1528    1527    1528    1528       0    1530    1531    1532    1533    1534
    1531    1532    1533    1534    1532    1533    1534    1533    1534    1534
       0    1536    1537    1538    1539    1540    1537    1538    1539    1540
    1538    1539    1540    1539    1540    1540       0    1542    1543    1544
    1545    1546    1543    1544    1545    1546    1544    1545    1546    1545
    1546    1546       0    1548    1549    1550    1551    1552    1549    1550
    1551    1552    1550    1551    1552    1551    1552    1552       0    1554
    1555    1556    1557    1558    1555    1556    1557    1558    1556    1557
    1558    1557    1558    1558       0    1560    1561    1562    1563    1564
    1561    1562    1563    1564    1562    1563    1564    1563    1564    1564
       0    1566    1567    1568    1569    1570    1567    1568    1569    1570
    1568    1569    1570    1569    1570    1570       0    1572    1573    1574
    1575    1576    1573    1574    1575    1576    1574    1575    1576    1575
    1576    1576       0    1578    1579    1580    1581    1582    1579    1580
    1581    1582    1580    1581    1582    1581    1582    1582       0    1584
    1585    1586    1587    1588    1585    1586    1587    1588    1586    1587
    1588    1587    1588    1588       0    1590    1591    1592    1593    1594
    1591    1592    1593    1594    1592    1593    1594    1593    1594    1594
       0    1596    1597    1598    1599    1600    1597    1598    1599    1600
    1598    1599    1600    1599    1600    1600       0    1602    1603    1604
    1605    1606    1603    1604    1605    1606    1604    1605    1606    1605
    1606    1606       0    1608    1609    1610    1611    1612    1609    1610
    1611    1612    1610    1611    1612    1611    1612    1612       0    1614
    1615    1616    1617    1618    1615    1616    1617    1618    1616    1617
    1618    1617    1618    1618       0    1620    1621    1622    1623    1624
    1621    1622    1623    1624    1622    1623    1624    1623    1624    1624
       0    1626    1627    1628    1629    1630    1627    1628    1629    1630
    1628    1629    1630    1629    1630    1630       0    1632    1633    1634
    1635    1636    1633    1634    1635    1636    1634    1635    1636    1635
    1636    1636       0    1638    1639    1640    1641    1642    1639    1640
    1641    1642    1640    1641    1642    1641    1642    1642       0    1644
    1645    1646    1647    1648    1645    1646    1647    1648    1646    1647
    1648    1647    1648    1648       0    1650    1651    1652    1653    1654
    1651    1652    1653    1654    1652    1653    1654    1653    1654    1654
       0    1656    1657    1658    1659    1660    1657    1658    1659    1660
    1658    1659    1660    1659    1660    1660       0    1662    1663    1664
    1665    1666    1663    1664    1665    1666    1664    1665    1666    1665
    1666    1666       0    1668    1669    1670    1671    1672    1669    1670
    1671    1672    1670    1671    1672    1671    1672    1672       0    1674
    1675    1676    1677    1678    1675    1676    1677    1678    1676    1677
    1678    1677    1678    1678       0    1680    1681    1682    1683    1684
    1681    1682    1683    1684    1682    1683    1684    1683    1684    1684
       0    1686    1687    1688    1689    1690    1687    1688    1689    1690
    1688    1689    1690    1689    1690    1690       0    1692    1693    1694
    1695    1696    1693    1694    1695    1696    1694    1695    1696    1695
    1696    1696       0    1698    1699    1700    1701    1702    1699    1700
    1701    1702    1700    1701    1702    1701    1702    1702       0    1704
    1705    1706    1707    1708    1705    1706    1707    1708    1706    1707
    1708    1707    1708    1708       0    1710    1711    1712    1713    1714
    1711    1712    1713    1714    1712    1713    1714    1713    1714    1714
       0    1716    1717    1718    1719    1720    1717    1718    1719    1720
    1718    1719    1720    1719    1720    1720       0    1722    1723    1724
    1725    1726    1723    1724    1725    1726    1724    1725    1726    1725
    1726    1726       0    1728    1729    1730    1731    1732    1729    1730
    1731    1732    1730    1731    1732    1731    1732    1732       0    1734
    1735    1736    1737    1738    1735    1736    1737    1738    1736    1737
    1738    1737    1738    1738       0    1740    1741    1742    1743    1744
    1741    1742    1743    1744    1742    1743    1744    1743    1744    1744
       0    1746    1747    1748    1749    1750    1747    1748    1749    1750
    1748    1749    1750    1749    1750    1750       0    1752    1753    1754
    1755    1756    1753    1754    1755    1756    1754    1755    1756    1755
    1756    1756       0    1758    1759    1760    1761    1762    1759    1760
    1761    1762    1760    1761    1762    1761    1762    1762       0    1764
    1765    1766    1767    1768    1765    1766    1767    1768    1766    1767
    1768    1767    1768    1768       0    1770    1771    1772    1773    1774
    1771    1772    1773    1774    1772    1773    1774    1773    1774    1774
       0    1776    1777    1778    1779    1780    1777    1778    1779    1780
    1778    1779    1780    1779    1780    1780       0    1782    1783    1784
    1785    1786    1783    1784    1785    1786    1784    1785    1786    1785
    1786    1786       0    1788    1789    1790    1791    1792    1789    1790
    1791    1792    1790    1791    1792    1791    1792    1792       0    1794
    1795    1796    1797    1798    1795    1796    1797    1798    1796    1797
    1798    1797    1798    1798       0    1800    1801    1802    1803    1804
    1801    1802    1803    1804    1802    1803    1804    1803    1804    1804
       0    1806    1807    1808    1809    1810    1807    1808    1809    1810
    1808    1809    1810    1809    1810    1810       0    1812    1813    1814
    1815    1816    1813    1814    1815    1816    1814    1815    1816    1815
    1816    1816       0    1818    1819    1820    1821    1822    1819    1820
    1821    1822    1820    1821    1822    1821    1822    1822       0    1824
    1825    1826    1827    1828    1825    1826    1827    1828    1826    1827
    1828    1827    1828    1828       0    1830    1831    1832    1833    1834
    1831    1832    1833    1834    1832    1833    1834    1833    1834    1834
       0    1836    1837    1838    1839    1840    1837    1838    1839    1840
    1838    1839    1840    1839    1840    1840       0    1842    1843    1844
    1845    1846    1843    1844    1845    1846    1844    1845    1846    1845
    1846    1846       0    1848    1849    1850    1851    1852    1849    1850
    1851    1852    1850    1851    1852    1851    1852    1852       0    1854
    1855    1856    1857    1858    1855    1856    1857    1858    1856    1857
    1858    1857    1858    1858       0    1860    1861    1862    1863    1864
    1861    1862    1863    1864    1862    1863    1864    1863    1864    1864
       0    1866    1867    1868    1869    1870    1867    1868    1869    1870
    1868    1869    1870    1869    1870    1870       0    1872    1873    1874
    1875    1876    1873    1874    1875    1876    1874    1875    1876    1875
    1876    1876       0    1878    1879    1880    1881    1882    1879    1880
    1881    1882    1880    1881    1882    1881    1882    1882       0    1884
    1885    1886    1887    1888    1885    1886    1887    1888    1886    1887
    1888    1887    1888    1888       0    1890    1891    1892    1893    1894
    1891    1892    1893    1894    1892    1893    1894    1893    1894    1894
       0    1896    1897    1898    1899    1900    1897    1898    1899    1900
    1898    1899    1900    1899    1900    1900       0    1902    1903    1904
    1905    1906    1903    1904    1905    1906    1904    1905    1906    1905
    1906    1906       0    1908    1909    1910    1911    1912    1909    1910
    1911    1912    1910    1911    1912    1911    1912    1912       0    1914
    1915    1916    1917    1918    1915    1916    1917    1918    1916    1917
    1918    1917    1918    1918       0    1920    1921    1922    1923    1924
    1921    1922    1923    1924    1922    1923    1924    1923    1924    1924
       0    1926    1927    1928    1929    1930    1927    1928    1929    1930
    1928    1929    1930    1929    1930    1930       0    1932    1933    1934
    1935    1936    1933    1934    1935    1936    1934    1935    1936    1935
    1936    1936       0    1938    1939    1940    1941    1942    1939    1940
    1941    1942    1940    1941    1942    1941    1942    1942       0    1944
    1945    1946    1947    1948    1945    1946    1947    1948    1946    1947
    1948    1947    1948    1948       0    1950    1951    1952    1953    1954
    1951    1952    1953    1954    1952    1953    1954    1953    1954    1954
       0    1956    1957    1958    1959    1960    1957    1958    1959    1960
    1958    1959    1960    1959    1960    1960       0    1962    1963    1964
    1965    1966    1963    1964    1965    1966    1964    1965    1966    1965
    1966    1966       0    1968    1969    1970    1971    1972    1969    1970
    1971    1972    1970    1971    1972    1971    1972    1972       0    1974
    1975    1976    1977    1978    1975    1976    1977    1978    1976    1977
    1978    1977    1978    1978       0    1980    1981    1982    1983    1984
    1981    1982    1983    1984    1982    1983    1984    1983    1984    1984
       0    1986    1987    1988    1989    1990    1987    1988    1989    1990
    1988    1989    1990    1989    1990    1990       0    1992    1993    1994
    1995    1996    1993    1994    1995    1996    1994    1995    1996    1995
    1996    1996       0    1998    1999    2000    2001    2002    1999    2000
    2001    2002    2000    2001    2002    2001    2002    2002       0    2004
    2005    2006    2007    2008    2005    2006    2007    2008    2006    2007
    2008    2007    2008    2008       0    2010    2011    2012    2013    2014
    2011    2012    2013    2014    2012    2013    2014    2013    2014    2014
       0    2016    2017    2018    2019    2020    2017    2018    2019    2020
    2018    2019    2020    2019    2020    2020       0    2022    2023    2024
    2025    2026    2023    2024    2025    2026    2024    2025    2026    2025
    2026    2026       0    2028    2029    2030    2031    2032    2029    2030
    2031    2032    2030    2031    2032    2031    2032    2032       0    2034
    2035    2036    2037    2038    2035    2036    2037    2038    2036    2037
    2038    2037    2038    2038       0    2040    2041    2042    2043    2044
    2041    2042    2043    2044    2042    2043    2044    2043    2044    2044
       0    2046    2047    2048    2049    2050    2047    2048    2049    2050
    2048    2049    2050    2049    2050    2050       0    2052    2053    2054
    2055    2056    2053    2054    2055    2056    2054    2055    2056    2055
    2056    2056       0    2058    2059    2060    2061    2062    2059    2060
    2061    2062    2060    2061    2062    2061    2062    2062       0    2064
    2065    2066    2067    2068    2065    2066    2067    2068    2066    2067
    2068    2067    2068    2068       0    2070    2071    2072    2073    2074
    2071    2072    2073    2074    2072    2073    2074    2073    2074    2074
       0    2076    2077    2078    2079    2080    2077    2078    2079    2080
    2078    2079    2080    2079    2080    2080       0
%FLAG HBOND_ACOEF                                                               
%FORMAT(5E16.8)                                                                 

%FLAG HBOND_BCOEF                                                               
%FORMAT(5E16.8)                                                                 

%FLAG HBCUT                                                                     
%FORMAT(5E16.8)                                                                 

%FLAG AMBER_ATOM_TYPE                                                           
%FORMAT(20a4)                                                                   
o   o   o   o   ns  ns  ca  ca  ca  ca  ca  ca  ca  ca  ca  ca  ca  ca  ca  ca  
ca  ca  ca  ca  ca  ca  c   c   c   c   ha  ha  ha  ha  ha  ha  ha  ha  hn  hn  
n1  c3  c1  hc  hc  hc  n1  c3  c1  hc  hc  hc  n1  c3  c1  hc  hc  hc  n1  c3  
c1  hc  hc  hc  n1  c3  c1  hc  hc  hc  n1  c3  c1  hc  hc  hc  n1  c3  c1  hc  
hc  hc  n1  c3  c1  hc  hc  hc  n1  c3  c1  hc  hc  hc  n1  c3  c1  hc  hc  hc  
n1  c3  c1  hc  hc  hc  n1  c3  c1  hc  hc  hc  n1  c3  c1  hc  hc  hc  n1  c3  
c1  hc  hc  hc  n1  c3  c1  hc  hc  hc  n1  c3  c1  hc  hc  hc  n1  c3  c1  hc  
hc  hc  n1  c3  c1  hc  hc  hc  n1  c3  c1  hc  hc  hc  n1  c3  c1  hc  hc  hc  
n1  c3  c1  hc  hc  hc  n1  c3  c1  hc  hc  hc  n1  c3  c1  hc  hc  hc  n1  c3  
c1  hc  hc  hc  n1  c3  c1  hc  hc  hc  n1  c3  c1  hc  hc  hc  n1  c3  c1  hc  
hc  hc  n1  c3  c1  hc  hc  hc  n1  c3  c1  hc  hc  hc  n1  c3  c1  hc  hc  hc  
n1  c3  c1  hc  hc  hc  n1  c3  c1  hc  hc  hc  n1  c3  c1  hc  hc  hc  n1  c3  
c1  hc  hc  hc  n1  c3  c1  hc  hc  hc  n1  c3  c1  hc  hc  hc  n1  c3  c1  hc  
hc  hc  n1  c3  c1  hc  hc  hc  n1  c3  c1  hc  hc  hc  n1  c3  c1  hc  hc  hc  
n1  c3  c1  hc  hc  hc  n1  c3  c1  hc  hc  hc  n1  c3  c1  hc  hc  hc  n1  c3  
c1  hc  hc  hc  n1  c3  c1  hc  hc  hc  n1  c3  c1  hc  hc  hc  n1  c3  c1  hc  
hc  hc  n1  c3  c1  hc  hc  hc  n1  c3  c1  hc  hc  hc  n1  c3  c1  hc  hc  hc  
n1  c3  c1  hc  hc  hc  n1  c3  c1  hc  hc  hc  n1  c3  c1  hc  hc  hc  n1  c3  
c1  hc  hc  hc  n1  c3  c1  hc  hc  hc  n1  c3  c1  hc  hc  hc  n1  c3  c1  hc  
hc  hc  n1  c3  c1  hc  hc  hc  n1  c3  c1  hc  hc  hc  n1  c3  c1  hc  hc  hc  
n1  c3  c1  hc  hc  hc  n1  c3  c1  hc  hc  hc  n1  c3  c1  hc  hc  hc  n1  c3  
c1  hc  hc  hc  n1  c3  c1  hc  hc  hc  n1  c3  c1  hc  hc  hc  n1  c3  c1  hc  
hc  hc  n1  c3  c1  hc  hc  hc  n1  c3  c1  hc  hc  hc  n1  c3  c1  hc  hc  hc  
n1  c3  c1  hc  hc  hc  n1  c3  c1  hc  hc  hc  n1  c3  c1  hc  hc  hc  n1  c3  
c1  hc  hc  hc  n1  c3  c1  hc  hc  hc  n1  c3  c1  hc  hc  hc  n1  c3  c1  hc  
hc  hc  n1  c3  c1  hc  hc  hc  n1  c3  c1  hc  hc  hc  n1  c3  c1  hc  hc  hc  
n1  c3  c1  hc  hc  hc  n1  c3  c1  hc  hc  hc  n1  c3  c1  hc  hc  hc  n1  c3  
c1  hc  hc  hc  n1  c3  c1  hc  hc  hc  n1  c3  c1  hc  hc  hc  n1  c3  c1  hc  
hc  hc  n1  c3  c1  hc  hc  hc  n1  c3  c1  hc  hc  hc  n1  c3  c1  hc  hc  hc  
n1  c3  c1  hc  hc  hc  n1  c3  c1  hc  hc  hc  n1  c3  c1  hc  hc  hc  n1  c3  
c1  hc  hc  hc  n1  c3  c1  hc  hc  hc  n1  c3  c1  hc  hc  hc  n1  c3  c1  hc  
hc  hc  n1  c3  c1  hc  hc  hc  n1  c3  c1  hc  hc  hc  n1  c3  c1  hc  hc  hc  
n1  c3  c1  hc  hc  hc  n1  c3  c1  hc  hc  hc  n1  c3  c1  hc  hc  hc  n1  c3  
c1  hc  hc  hc  n1  c3  c1  hc  hc  hc  n1  c3  c1  hc  hc  hc  n1  c3  c1  hc  
hc  hc  n1  c3  c1  hc  hc  hc  n1  c3  c1  hc  hc  hc  n1  c3  c1  hc  hc  hc  
n1  c3  c1  hc  hc  hc  n1  c3  c1  hc  hc  hc  n1  c3  c1  hc  hc  hc  n1  c3  
c1  hc  hc  hc  n1  c3  c1  hc  hc  hc  n1  c3  c1  hc  hc  hc  n1  c3  c1  hc  
hc  hc  n1  c3  c1  hc  hc  hc  n1  c3  c1  hc  hc  hc  n1  c3  c1  hc  hc  hc  
n1  c3  c1  hc  hc  hc  n1  c3  c1  hc  hc  hc  n1  c3  c1  hc  hc  hc  n1  c3  
c1  hc  hc  hc  n1  c3  c1  hc  hc  hc  n1  c3  c1  hc  hc  hc  n1  c3  c1  hc  
hc  hc  n1  c3  c1  hc  hc  hc  n1  c3  c1  hc  hc  hc  n1  c3  c1  hc  hc  hc  
n1  c3  c1  hc  hc  hc  n1  c3  c1  hc  hc  hc  n1  c3  c1  hc  hc  hc  n1  c3  
c1  hc  hc  hc  n1  c3  c1  hc  hc  hc  n1  c3  c1  hc  hc  hc  n1  c3  c1  hc  
hc  hc  n1  c3  c1  hc  hc  hc  n1  c3  c1  hc  hc  hc  n1  c3  c1  hc  hc  hc  
n1  c3  c1  hc  hc  hc  n1  c3  c1  hc  hc  hc  n1  c3  c1  hc  hc  hc  n1  c3  
c1  hc  hc  hc  n1  c3  c1  hc  hc  hc  n1  c3  c1  hc  hc  hc  n1  c3  c1  hc  
hc  hc  n1  c3  c1  hc  hc  hc  n1  c3  c1  hc  hc  hc  n1  c3  c1  hc  hc  hc  
n1  c3  c1  hc  hc  hc  n1  c3  c1  hc  hc  hc  n1  c3  c1  hc  hc  hc  n1  c3  
c1  hc  hc  hc  n1  c3  c1  hc  hc  hc  n1  c3  c1  hc  hc  hc  n1  c3  c1  hc  
hc  hc  n1  c3  c1  hc  hc  hc  n1  c3  c1  hc  hc  hc  n1  c3  c1  hc  hc  hc  
n1  c3  c1  hc  hc  hc  n1  c3  c1  hc  hc  hc  n1  c3  c1  hc  hc  hc  n1  c3  
c1  hc  hc  hc  n1  c3  c1  hc  hc  hc  n1  c3  c1  hc  hc  hc  n1  c3  c1  hc  
hc  hc  n1  c3  c1  hc  hc  hc  n1  c3  c1  hc  hc  hc  n1  c3  c1  hc  hc  hc  
n1  c3  c1  hc  hc  hc  n1  c3  c1  hc  hc  hc  n1  c3  c1  hc  hc  hc  n1  c3  
c1  hc  hc  hc  n1  c3  c1  hc  hc  hc  n1  c3  c1  hc  hc  hc  n1  c3  c1  hc  
hc  hc  n1  c3  c1  hc  hc  hc  n1  c3  c1  hc  hc  hc  n1  c3  c1  hc  hc  hc  
n1  c3  c1  hc  hc  hc  n1  c3  c1  hc  hc  hc  n1  c3  c1  hc  hc  hc  n1  c3  
c1  hc  hc  hc  n1  c3  c1  hc  hc  hc  n1  c3  c1  hc  hc  hc  n1  c3  c1  hc  
hc  hc  n1  c3  c1  hc  hc  hc  n1  c3  c1  hc  hc  hc  n1  c3  c1  hc  hc  hc  
n1  c3  c1  hc  hc  hc  n1  c3  c1  hc  hc  hc  n1  c3  c1  hc  hc  hc  n1  c3  
c1  hc  hc  hc  n1  c3  c1  hc  hc  hc  n1  c3  c1  hc  hc  hc  n1  c3  c1  hc  
hc  hc  n1  c3  c1  hc  hc  hc  n1  c3  c1  hc  hc  hc  n1  c3  c1  hc  hc  hc  
n1  c3  c1  hc  hc  hc  n1  c3  c1  hc  hc  hc  n1  c3  c1  hc  hc  hc  n1  c3  
c1  hc  hc  hc  n1  c3  c1  hc  hc  hc  n1  c3  c1  hc  hc  hc  n1  c3  c1  hc  
hc  hc  n1  c3  c1  hc  hc  hc  n1  c3  c1  hc  hc  hc  n1  c3  c1  hc  hc  hc  
n1  c3  c1  hc  hc  hc  n1  c3  c1  hc  hc  hc  n1  c3  c1  hc  hc  hc  n1  c3  
c1  hc  hc  hc  n1  c3  c1  hc  hc  hc  n1  c3  c1  hc  hc  hc  n1  c3  c1  hc  
hc  hc  n1  c3  c1  hc  hc  hc  n1  c3  c1  hc  hc  hc  n1  c3  c1  hc  hc  hc  
n1  c3  c1  hc  hc  hc  n1  c3  c1  hc  hc  hc  n1  c3  c1  hc  hc  hc  n1  c3  
c1  hc  hc  hc  n1  c3  c1  hc  hc  hc  n1  c3  c1  hc  hc  hc  n1  c3  c1  hc  
hc  hc  n1  c3  c1  hc  hc  hc  n1  c3  c1  hc  hc  hc  n1  c3  c1  hc  hc  hc  
n1  c3  c1  hc  hc  hc  n1  c3  c1  hc  hc  hc  n1  c3  c1  hc  hc  hc  n1  c3  
c1  hc  hc  hc  n1  c3  c1  hc  hc  hc  n1  c3  c1  hc  hc  hc  n1  c3  c1  hc  
hc  hc  n1  c3  c1  hc  hc  hc  n1  c3  c1  hc  hc  hc  n1  c3  c1  hc  hc  hc  
n1  c3  c1  hc  hc  hc  n1  c3  c1  hc  hc  hc  n1  c3  c1  hc  hc  hc  n1  c3  
c1  hc  hc  hc  n1  c3  c1  hc  hc  hc  n1  c3  c1  hc  hc  hc  n1  c3  c1  hc  
hc  hc  n1  c3  c1  hc  hc  hc  n1  c3  c1  hc  hc  hc  n1  c3  c1  hc  hc  hc  
n1  c3  c1  hc  hc  hc  n1  c3  c1  hc  hc  hc  n1  c3  c1  hc  hc  hc  n1  c3  
c1  hc  hc  hc  n1  c3  c1  hc  hc  hc  n1  c3  c1  hc  hc  hc  n1  c3  c1  hc  
hc  hc  n1  c3  c1  hc  hc  hc  n1  c3  c1  hc  hc  hc  n1  c3  c1  hc  hc  hc  
n1  c3  c1  hc  hc  hc  n1  c3  c1  hc  hc  hc  n1  c3  c1  hc  hc  hc  n1  c3  
c1  hc  hc  hc  n1  c3  c1  hc  hc  hc  n1  c3  c1  hc  hc  hc  n1  c3  c1  hc  
hc  hc  n1  c3  c1  hc  hc  hc  n1  c3  c1  hc  hc  hc  n1  c3  c1  hc  hc  hc  
n1  c3  c1  hc  hc  hc  n1  c3  c1  hc  hc  hc  n1  c3  c1  hc  hc  hc  n1  c3  
c1  hc  hc  hc  n1  c3  c1  hc  hc  hc  n1  c3  c1  hc  hc  hc  n1  c3  c1  hc  
hc  hc  n1  c3  c1  hc  hc  hc  n1  c3  c1  hc  hc  hc  n1  c3  c1  hc  hc  hc  
n1  c3  c1  hc  hc  hc  n1  c3  c1  hc  hc  hc  n1  c3  c1  hc  hc  hc  n1  c3  
c1  hc  hc  hc  n1  c3  c1  hc  hc  hc  n1  c3  c1  hc  hc  hc  n1  c3  c1  hc  
hc  hc  n1  c3  c1  hc  hc  hc  n1  c3  c1  hc  hc  hc  n1  c3  c1  hc  hc  hc  
n1  c3  c1  hc  hc  hc  n1  c3  c1  hc  hc  hc  n1  c3  c1  hc  hc  hc  n1  c3  
c1  hc  hc  hc  n1  c3  c1  hc  hc  hc  n1  c3  c1  hc  hc  hc  n1  c3  c1  hc  
hc  hc  n1  c3  c1  hc  hc  hc  n1  c3  c1  hc  hc  hc  n1  c3  c1  hc  hc  hc  
n1  c3  c1  hc  hc  hc  n1  c3  c1  hc  hc  hc  n1  c3  c1  hc  hc  hc  n1  c3  
c1  hc  hc  hc  n1  c3  c1  hc  hc  hc  n1  c3  c1  hc  hc  hc  n1  c3  c1  hc  
hc  hc  n1  c3  c1  hc  hc  hc  n1  c3  c1  hc  hc  hc  n1  c3  c1  hc  hc  hc  
n1  c3  c1  hc  hc  hc  n1  c3  c1  hc  hc  hc  n1  c3  c1  hc  hc  hc  n1  c3  
c1  hc  hc  hc  n1  c3  c1  hc  hc  hc  n1  c3  c1  hc  hc  hc  n1  c3  c1  hc  
hc  hc  n1  c3  c1  hc  hc  hc  n1  c3  c1  hc  hc  hc  n1  c3  c1  hc  hc  hc  
n1  c3  c1  hc  hc  hc  n1  c3  c1  hc  hc  hc  n1  c3  c1  hc  hc  hc  n1  c3  
c1  hc  hc  hc  n1  c3  c1  hc  hc  hc  n1  c3  c1  hc  hc  hc  n1  c3  c1  hc  
hc  hc  n1  c3  c1  hc  hc  hc  n1  c3  c1  hc  hc  hc  n1  c3  c1  hc  hc  hc  
n1  c3  c1  hc  hc  hc  n1  c3  c1  hc  hc  hc  n1  c3  c1  hc  hc  hc  n1  c3  
c1  hc  hc  hc  n1  c3  c1  hc  hc  hc  n1  c3  c1  hc  hc  hc  n1  c3  c1  hc  
hc  hc  n1  c3  c1  hc  hc  hc  n1  c3  c1  hc  hc  hc  n1  c3  c1  hc  hc  hc  
%FLAG TREE_CHAIN_CLASSIFICATION                                                 
%FORMAT(20a4)                                                                   
BLA BLA BLA BLA BLA BLA BLA BLA BLA BLA BLA BLA BLA BLA BLA BLA BLA BLA BLA BLA 
BLA BLA BLA BLA BLA BLA BLA BLA BLA BLA BLA BLA BLA BLA BLA BLA BLA BLA BLA BLA 
BLA BLA BLA BLA BLA BLA BLA BLA BLA BLA BLA BLA BLA BLA BLA BLA BLA BLA BLA BLA 
BLA BLA BLA BLA BLA BLA BLA BLA BLA BLA BLA BLA BLA BLA BLA BLA BLA BLA BLA BLA 
BLA BLA BLA BLA BLA BLA BLA BLA BLA BLA BLA BLA BLA BLA BLA BLA BLA BLA BLA BLA 
BLA BLA BLA BLA BLA BLA BLA BLA BLA BLA BLA BLA BLA BLA BLA BLA BLA BLA BLA BLA 
BLA BLA BLA BLA BLA BLA BLA BLA BLA BLA BLA BLA BLA BLA BLA BLA BLA BLA BLA BLA 
BLA BLA BLA BLA BLA BLA BLA BLA BLA BLA BLA BLA BLA BLA BLA BLA BLA BLA BLA BLA 
BLA BLA BLA BLA BLA BLA BLA BLA BLA BLA BLA BLA BLA BLA BLA BLA BLA BLA BLA BLA 
BLA BLA BLA BLA BLA BLA BLA BLA BLA BLA BLA BLA BLA BLA BLA BLA BLA BLA BLA BLA 
BLA BLA BLA BLA BLA BLA BLA BLA BLA BLA BLA BLA BLA BLA BLA BLA BLA BLA BLA BLA 
BLA BLA BLA BLA BLA BLA BLA BLA BLA BLA BLA BLA BLA BLA BLA BLA BLA BLA BLA BLA 
BLA BLA BLA BLA BLA BLA BLA BLA BLA BLA BLA BLA BLA BLA BLA BLA BLA BLA BLA BLA 
BLA BLA BLA BLA BLA BLA BLA BLA BLA BLA BLA BLA BLA BLA BLA BLA BLA BLA BLA BLA 
BLA BLA BLA BLA BLA BLA BLA BLA BLA BLA BLA BLA BLA BLA BLA BLA BLA BLA BLA BLA 
BLA BLA BLA BLA BLA BLA BLA BLA BLA BLA BLA BLA BLA BLA BLA BLA BLA BLA BLA BLA 
BLA BLA BLA BLA BLA BLA BLA BLA BLA BLA BLA BLA BLA BLA BLA BLA BLA BLA BLA BLA 
BLA BLA BLA BLA BLA BLA BLA BLA BLA BLA BLA BLA BLA BLA BLA BLA BLA BLA BLA BLA 
BLA BLA BLA BLA BLA BLA BLA BLA BLA BLA BLA BLA BLA BLA BLA BLA BLA BLA BLA BLA 
BLA BLA BLA BLA BLA BLA BLA BLA BLA BLA BLA BLA BLA BLA BLA BLA BLA BLA BLA BLA 
BLA BLA BLA BLA BLA BLA BLA BLA BLA BLA BLA BLA BLA BLA BLA BLA BLA BLA BLA BLA 
BLA BLA BLA BLA BLA BLA BLA BLA BLA BLA BLA BLA BLA BLA BLA BLA BLA BLA BLA BLA 
BLA BLA BLA BLA BLA BLA BLA BLA BLA BLA BLA BLA BLA BLA BLA BLA BLA BLA BLA BLA 
BLA BLA BLA BLA BLA BLA BLA BLA BLA BLA BLA BLA BLA BLA BLA BLA BLA BLA BLA BLA 
BLA BLA BLA BLA BLA BLA BLA BLA BLA BLA BLA BLA BLA BLA BLA BLA BLA BLA BLA BLA 
BLA BLA BLA BLA BLA BLA BLA BLA BLA BLA BLA BLA BLA BLA BLA BLA BLA BLA BLA BLA 
BLA BLA BLA BLA BLA BLA BLA BLA BLA BLA BLA BLA BLA BLA BLA BLA BLA BLA BLA BLA 
BLA BLA BLA BLA BLA BLA BLA BLA BLA BLA BLA BLA BLA BLA BLA BLA BLA BLA BLA BLA 
BLA BLA BLA BLA BLA BLA BLA BLA BLA BLA BLA BLA BLA BLA BLA BLA BLA BLA BLA BLA 
BLA BLA BLA BLA BLA BLA BLA BLA BLA BLA BLA BLA BLA BLA BLA BLA BLA BLA BLA BLA 
BLA BLA BLA BLA BLA BLA BLA BLA BLA BLA BLA BLA BLA BLA BLA BLA BLA BLA BLA BLA 
BLA BLA BLA BLA BLA BLA BLA BLA BLA BLA BLA BLA BLA BLA BLA BLA BLA BLA BLA BLA 
BLA BLA BLA BLA BLA BLA BLA BLA BLA BLA BLA BLA BLA BLA BLA BLA BLA BLA BLA BLA 
BLA BLA BLA BLA BLA BLA BLA BLA BLA BLA BLA BLA BLA BLA BLA BLA BLA BLA BLA BLA 
BLA BLA BLA BLA BLA BLA BLA BLA BLA BLA BLA BLA BLA BLA BLA BLA BLA BLA BLA BLA 
BLA BLA BLA BLA BLA BLA BLA BLA BLA BLA BLA BLA BLA BLA BLA BLA BLA BLA BLA BLA 
BLA BLA BLA BLA BLA BLA BLA BLA BLA BLA BLA BLA BLA BLA BLA BLA BLA BLA BLA BLA 
BLA BLA BLA BLA BLA BLA BLA BLA BLA BLA BLA BLA BLA BLA BLA BLA BLA BLA BLA BLA 
BLA BLA BLA BLA BLA BLA BLA BLA BLA BLA BLA BLA BLA BLA BLA BLA BLA BLA BLA BLA 
BLA BLA BLA BLA BLA BLA BLA BLA BLA BLA BLA BLA BLA BLA BLA BLA BLA BLA BLA BLA 
BLA BLA BLA BLA BLA BLA BLA BLA BLA BLA BLA BLA BLA BLA BLA BLA BLA BLA BLA BLA 
BLA BLA BLA BLA BLA BLA BLA BLA BLA BLA BLA BLA BLA BLA BLA BLA BLA BLA BLA BLA 
BLA BLA BLA BLA BLA BLA BLA BLA BLA BLA BLA BLA BLA BLA BLA BLA BLA BLA BLA BLA 
BLA BLA BLA BLA BLA BLA BLA BLA BLA BLA BLA BLA BLA BLA BLA BLA BLA BLA BLA BLA 
BLA BLA BLA BLA BLA BLA BLA BLA BLA BLA BLA BLA BLA BLA BLA BLA BLA BLA BLA BLA 
BLA BLA BLA BLA BLA BLA BLA BLA BLA BLA BLA BLA BLA BLA BLA BLA BLA BLA BLA BLA 
BLA BLA BLA BLA BLA BLA BLA BLA BLA BLA BLA BLA BLA BLA BLA BLA BLA BLA BLA BLA 
BLA BLA BLA BLA BLA BLA BLA BLA BLA BLA BLA BLA BLA BLA BLA BLA BLA BLA BLA BLA 
BLA BLA BLA BLA BLA BLA BLA BLA BLA BLA BLA BLA BLA BLA BLA BLA BLA BLA BLA BLA 
BLA BLA BLA BLA BLA BLA BLA BLA BLA BLA BLA BLA BLA BLA BLA BLA BLA BLA BLA BLA 
BLA BLA BLA BLA BLA BLA BLA BLA BLA BLA BLA BLA BLA BLA BLA BLA BLA BLA BLA BLA 
BLA BLA BLA BLA BLA BLA BLA BLA BLA BLA BLA BLA BLA BLA BLA BLA BLA BLA BLA BLA 
BLA BLA BLA BLA BLA BLA BLA BLA BLA BLA BLA BLA BLA BLA BLA BLA BLA BLA BLA BLA 
BLA BLA BLA BLA BLA BLA BLA BLA BLA BLA BLA BLA BLA BLA BLA BLA BLA BLA BLA BLA 
BLA BLA BLA BLA BLA BLA BLA BLA BLA BLA BLA BLA BLA BLA BLA BLA BLA BLA BLA BLA 
BLA BLA BLA BLA BLA BLA BLA BLA BLA BLA BLA BLA BLA BLA BLA BLA BLA BLA BLA BLA 
BLA BLA BLA BLA BLA BLA BLA BLA BLA BLA BLA BLA BLA BLA BLA BLA BLA BLA BLA BLA 
BLA BLA BLA BLA BLA BLA BLA BLA BLA BLA BLA BLA BLA BLA BLA BLA BLA BLA BLA BLA 
BLA BLA BLA BLA BLA BLA BLA BLA BLA BLA BLA BLA BLA BLA BLA BLA BLA BLA BLA BLA 
BLA BLA BLA BLA BLA BLA BLA BLA BLA BLA BLA BLA BLA BLA BLA BLA BLA BLA BLA BLA 
BLA BLA BLA BLA BLA BLA BLA BLA BLA BLA BLA BLA BLA BLA BLA BLA BLA BLA BLA BLA 
BLA BLA BLA BLA BLA BLA BLA BLA BLA BLA BLA BLA BLA BLA BLA BLA BLA BLA BLA BLA 
BLA BLA BLA BLA BLA BLA BLA BLA BLA BLA BLA BLA BLA BLA BLA BLA BLA BLA BLA BLA 
BLA BLA BLA BLA BLA BLA BLA BLA BLA BLA BLA BLA BLA BLA BLA BLA BLA BLA BLA BLA 
BLA BLA BLA BLA BLA BLA BLA BLA BLA BLA BLA BLA BLA BLA BLA BLA BLA BLA BLA BLA 
BLA BLA BLA BLA BLA BLA BLA BLA BLA BLA BLA BLA BLA BLA BLA BLA BLA BLA BLA BLA 
BLA BLA BLA BLA BLA BLA BLA BLA BLA BLA BLA BLA BLA BLA BLA BLA BLA BLA BLA BLA 
BLA BLA BLA BLA BLA BLA BLA BLA BLA BLA BLA BLA BLA BLA BLA BLA BLA BLA BLA BLA 
BLA BLA BLA BLA BLA BLA BLA BLA BLA BLA BLA BLA BLA BLA BLA BLA BLA BLA BLA BLA 
BLA BLA BLA BLA BLA BLA BLA BLA BLA BLA BLA BLA BLA BLA BLA BLA BLA BLA BLA BLA 
BLA BLA BLA BLA BLA BLA BLA BLA BLA BLA BLA BLA BLA BLA BLA BLA BLA BLA BLA BLA 
BLA BLA BLA BLA BLA BLA BLA BLA BLA BLA BLA BLA BLA BLA BLA BLA BLA BLA BLA BLA 
BLA BLA BLA BLA BLA BLA BLA BLA BLA BLA BLA BLA BLA BLA BLA BLA BLA BLA BLA BLA 
BLA BLA BLA BLA BLA BLA BLA BLA BLA BLA BLA BLA BLA BLA BLA BLA BLA BLA BLA BLA 
BLA BLA BLA BLA BLA BLA BLA BLA BLA BLA BLA BLA BLA BLA BLA BLA BLA BLA BLA BLA 
BLA BLA BLA BLA BLA BLA BLA BLA BLA BLA BLA BLA BLA BLA BLA BLA BLA BLA BLA BLA 
BLA BLA BLA BLA BLA BLA BLA BLA BLA BLA BLA BLA BLA BLA BLA BLA BLA BLA BLA BLA 
BLA BLA BLA BLA BLA BLA BLA BLA BLA BLA BLA BLA BLA BLA BLA BLA BLA BLA BLA BLA 
BLA BLA BLA BLA BLA BLA BLA BLA BLA BLA BLA BLA BLA BLA BLA BLA BLA BLA BLA BLA 
BLA BLA BLA BLA BLA BLA BLA BLA BLA BLA BLA BLA BLA BLA BLA BLA BLA BLA BLA BLA 
BLA BLA BLA BLA BLA BLA BLA BLA BLA BLA BLA BLA BLA BLA BLA BLA BLA BLA BLA BLA 
BLA BLA BLA BLA BLA BLA BLA BLA BLA BLA BLA BLA BLA BLA BLA BLA BLA BLA BLA BLA 
BLA BLA BLA BLA BLA BLA BLA BLA BLA BLA BLA BLA BLA BLA BLA BLA BLA BLA BLA BLA 
BLA BLA BLA BLA BLA BLA BLA BLA BLA BLA BLA BLA BLA BLA BLA BLA BLA BLA BLA BLA 
BLA BLA BLA BLA BLA BLA BLA BLA BLA BLA BLA BLA BLA BLA BLA BLA BLA BLA BLA BLA 
BLA BLA BLA BLA BLA BLA BLA BLA BLA BLA BLA BLA BLA BLA BLA BLA BLA BLA BLA BLA 
BLA BLA BLA BLA BLA BLA BLA BLA BLA BLA BLA BLA BLA BLA BLA BLA BLA BLA BLA BLA 
BLA BLA BLA BLA BLA BLA BLA BLA BLA BLA BLA BLA BLA BLA BLA BLA BLA BLA BLA BLA 
BLA BLA BLA BLA BLA BLA BLA BLA BLA BLA BLA BLA BLA BLA BLA BLA BLA BLA BLA BLA 
BLA BLA BLA BLA BLA BLA BLA BLA BLA BLA BLA BLA BLA BLA BLA BLA BLA BLA BLA BLA 
BLA BLA BLA BLA BLA BLA BLA BLA BLA BLA BLA BLA BLA BLA BLA BLA BLA BLA BLA BLA 
BLA BLA BLA BLA BLA BLA BLA BLA BLA BLA BLA BLA BLA BLA BLA BLA BLA BLA BLA BLA 
BLA BLA BLA BLA BLA BLA BLA BLA BLA BLA BLA BLA BLA BLA BLA BLA BLA BLA BLA BLA 
BLA BLA BLA BLA BLA BLA BLA BLA BLA BLA BLA BLA BLA BLA BLA BLA BLA BLA BLA BLA 
BLA BLA BLA BLA BLA BLA BLA BLA BLA BLA BLA BLA BLA BLA BLA BLA BLA BLA BLA BLA 
BLA BLA BLA BLA BLA BLA BLA BLA BLA BLA BLA BLA BLA BLA BLA BLA BLA BLA BLA BLA 
BLA BLA BLA BLA BLA BLA BLA BLA BLA BLA BLA BLA BLA BLA BLA BLA BLA BLA BLA BLA 
BLA BLA BLA BLA BLA BLA BLA BLA BLA BLA BLA BLA BLA BLA BLA BLA BLA BLA BLA BLA 
BLA BLA BLA BLA BLA BLA BLA BLA BLA BLA BLA BLA BLA BLA BLA BLA BLA BLA BLA BLA 
BLA BLA BLA BLA BLA BLA BLA BLA BLA BLA BLA BLA BLA BLA BLA BLA BLA BLA BLA BLA 
BLA BLA BLA BLA BLA BLA BLA BLA BLA BLA BLA BLA BLA BLA BLA BLA BLA BLA BLA BLA 
BLA BLA BLA BLA BLA BLA BLA BLA BLA BLA BLA BLA BLA BLA BLA BLA BLA BLA BLA BLA 
BLA BLA BLA BLA BLA BLA BLA BLA BLA BLA BLA BLA BLA BLA BLA BLA BLA BLA BLA BLA 
BLA BLA BLA BLA BLA BLA BLA BLA BLA BLA BLA BLA BLA BLA BLA BLA BLA BLA BLA BLA 
%FLAG JOIN_ARRAY                                                                
%FORMAT(10I8)                                                                   
       0       0       0       0       0       0       0       0       0       0
       0       0       0       0       0       0       0       0       0       0
       0       0       0       0       0       0       0       0       0       0
       0       0       0       0       0       0       0       0       0       0
       0       0       0       0       0       0       0       0       0       0
       0       0       0       0       0       0       0       0       0       0
       0       0       0       0       0       0       0       0       0       0
       0       0       0       0       0       0       0       0       0       0
       0       0       0       0       0       0       0       0       0       0
       0       0       0       0       0       0       0       0       0       0
       0       0       0       0       0       0       0       0       0       0
       0       0       0       0       0       0       0       0       0       0
       0       0       0       0       0       0       0       0       0       0
       0       0       0       0       0       0       0       0       0       0
       0       0       0       0       0       0       0       0       0       0
       0       0       0       0       0       0       0       0       0       0
       0       0       0       0       0       0       0       0       0       0
       0       0       0       0       0       0       0       0       0       0
       0       0       0       0       0       0       0       0       0       0
       0       0       0       0       0       0       0       0       0       0
       0       0       0       0       0       0       0       0       0       0
       0       0       0       0       0       0       0       0       0       0
       0       0       0       0       0       0       0       0       0       0
       0       0       0       0       0       0       0       0       0       0
       0       0       0       0       0       0       0       0       0       0
       0       0       0       0       0       0       0       0       0       0
       0       0       0       0       0       0       0       0       0       0
       0       0       0       0       0       0       0       0       0       0
       0       0       0       0       0       0       0       0       0       0
       0       0       0       0       0       0       0       0       0       0
       0       0       0       0       0       0       0       0       0       0
       0       0       0       0       0       0       0       0       0       0
       0       0       0       0       0       0       0       0       0       0
       0       0       0       0       0       0       0       0       0       0
       0       0       0       0       0       0       0       0       0       0
       0       0       0       0       0       0       0       0       0       0
       0       0       0       0       0       0       0       0       0       0
       0       0       0       0       0       0       0       0       0       0
       0       0       0       0       0       0       0       0       0       0
       0       0       0       0       0       0       0       0       0       0
       0       0       0       0       0       0       0       0       0       0
       0       0       0       0       0       0       0       0       0       0
       0       0       0       0       0       0       0       0       0       0
       0       0       0       0       0       0       0       0       0       0
       0       0       0       0       0       0       0       0       0       0
       0       0       0       0       0       0       0       0       0       0
       0       0       0       0       0       0       0       0       0       0
       0       0       0       0       0       0       0       0       0       0
       0       0       0       0       0       0       0       0       0       0
       0       0       0       0       0       0       0       0       0       0
       0       0       0       0       0       0       0       0       0       0
       0       0       0       0       0       0       0       0       0       0
       0       0       0       0       0       0       0       0       0       0
       0       0       0       0       0       0       0       0       0       0
       0       0       0       0       0       0       0       0       0       0
       0       0       0       0       0       0       0       0       0       0
       0       0       0       0       0       0       0       0       0       0
       0       0       0       0       0       0       0       0       0       0
       0       0       0       0       0       0       0       0       0       0
       0       0       0       0       0       0       0       0       0       0
       0       0       0       0       0       0       0       0       0       0
       0       0       0       0       0       0       0       0       0       0
       0       0       0       0       0       0       0       0       0       0
       0       0       0       0       0       0       0       0       0       0
       0       0       0       0       0       0       0       0       0       0
       0       0       0       0       0       0       0       0       0       0
       0       0       0       0       0       0       0       0       0       0
       0       0       0       0       0       0       0       0       0       0
       0       0       0       0       0       0       0       0       0       0
       0       0       0       0       0       0       0       0       0       0
       0       0       0       0       0       0       0       0       0       0
       0       0       0       0       0       0       0       0       0       0
       0       0       0       0       0       0       0       0       0       0
       0       0       0       0       0       0       0       0       0       0
       0       0       0       0       0       0       0       0       0       0
       0       0       0       0       0       0       0       0       0       0
       0       0       0       0       0       0       0       0       0       0
       0       0       0       0       0       0       0       0       0       0
       0       0       0       0       0       0       0       0       0       0
       0       0       0       0       0       0       0       0       0       0
       0       0       0       0       0       0       0       0       0       0
       0       0       0       0       0       0       0       0       0       0
       0       0       0       0       0       0       0       0       0       0
       0       0       0       0       0       0       0       0       0       0
       0       0       0       0       0       0       0       0       0       0
       0       0       0       0       0       0       0       0       0       0
       0       0       0       0       0       0       0       0       0       0
       0       0       0       0       0       0       0       0       0       0
       0       0       0       0       0       0       0       0       0       0
       0       0       0       0       0       0       0       0       0       0
       0       0       0       0       0       0       0       0       0       0
       0       0       0       0       0       0       0       0       0       0
       0       0       0       0       0       0       0       0       0       0
       0       0       0       0       0       0       0       0       0       0
       0       0       0       0       0       0       0       0       0       0
       0       0       0       0       0       0       0       0       0       0
       0       0       0       0       0       0       0       0       0       0
       0       0       0       0       0       0       0       0       0       0
       0       0       0       0       0       0       0       0       0       0
       0       0       0       0       0       0       0       0       0       0
       0       0       0       0       0       0       0       0       0       0
       0       0       0       0       0       0       0       0       0       0
       0       0       0       0       0       0       0       0       0       0
       0       0       0       0       0       0       0       0       0       0
       0       0       0       0       0       0       0       0       0       0
       0       0       0       0       0       0       0       0       0       0
       0       0       0       0       0       0       0       0       0       0
       0       0       0       0       0       0       0       0       0       0
       0       0       0       0       0       0       0       0       0       0
       0       0       0       0       0       0       0       0       0       0
       0       0       0       0       0       0       0       0       0       0
       0       0       0       0       0       0       0       0       0       0
       0       0       0       0       0       0       0       0       0       0
       0       0       0       0       0       0       0       0       0       0
       0       0       0       0       0       0       0       0       0       0
       0       0       0       0       0       0       0       0       0       0
       0       0       0       0       0       0       0       0       0       0
       0       0       0       0       0       0       0       0       0       0
       0       0       0       0       0       0       0       0       0       0
       0       0       0       0       0       0       0       0       0       0
       0       0       0       0       0       0       0       0       0       0
       0       0       0       0       0       0       0       0       0       0
       0       0       0       0       0       0       0       0       0       0
       0       0       0       0       0       0       0       0       0       0
       0       0       0       0       0       0       0       0       0       0
       0       0       0       0       0       0       0       0       0       0
       0       0       0       0       0       0       0       0       0       0
       0       0       0       0       0       0       0       0       0       0
       0       0       0       0       0       0       0       0       0       0
       0       0       0       0       0       0       0       0       0       0
       0       0       0       0       0       0       0       0       0       0
       0       0       0       0       0       0       0       0       0       0
       0       0       0       0       0       0       0       0       0       0
       0       0       0       0       0       0       0       0       0       0
       0       0       0       0       0       0       0       0       0       0
       0       0       0       0       0       0       0       0       0       0
       0       0       0       0       0       0       0       0       0       0
       0       0       0       0       0       0       0       0       0       0
       0       0       0       0       0       0       0       0       0       0
       0       0       0       0       0       0       0       0       0       0
       0       0       0       0       0       0       0       0       0       0
       0       0       0       0       0       0       0       0       0       0
       0       0       0       0       0       0       0       0       0       0
       0       0       0       0       0       0       0       0       0       0
       0       0       0       0       0       0       0       0       0       0
       0       0       0       0       0       0       0       0       0       0
       0       0       0       0       0       0       0       0       0       0
       0       0       0       0       0       0       0       0       0       0
       0       0       0       0       0       0       0       0       0       0
       0       0       0       0       0       0       0       0       0       0
       0       0       0       0       0       0       0       0       0       0
       0       0       0       0       0       0       0       0       0       0
       0       0       0       0       0       0       0       0       0       0
       0       0       0       0       0       0       0       0       0       0
       0       0       0       0       0       0       0       0       0       0
       0       0       0       0       0       0       0       0       0       0
       0       0       0       0       0       0       0       0       0       0
       0       0       0       0       0       0       0       0       0       0
       0       0       0       0       0       0       0       0       0       0
       0       0       0       0       0       0       0       0       0       0
       0       0       0       0       0       0       0       0       0       0
       0       0       0       0       0       0       0       0       0       0
       0       0       0       0       0       0       0       0       0       0
       0       0       0       0       0       0       0       0       0       0
       0       0       0       0       0       0       0       0       0       0
       0       0       0       0       0       0       0       0       0       0
       0       0       0       0       0       0       0       0       0       0
       0       0       0       0       0       0       0       0       0       0
       0       0       0       0       0       0       0       0       0       0
       0       0       0       0       0       0       0       0       0       0
       0       0       0       0       0       0       0       0       0       0
       0       0       0       0       0       0       0       0       0       0
       0       0       0       0       0       0       0       0       0       0
       0       0       0       0       0       0       0       0       0       0
       0       0       0       0       0       0       0       0       0       0
       0       0       0       0       0       0       0       0       0       0
       0       0       0       0       0       0       0       0       0       0
       0       0       0       0       0       0       0       0       0       0
       0       0       0       0       0       0       0       0       0       0
       0       0       0       0       0       0       0       0       0       0
       0       0       0       0       0       0       0       0       0       0
       0       0       0       0       0       0       0       0       0       0
       0       0       0       0       0       0       0       0       0       0
       0       0       0       0       0       0       0       0       0       0
       0       0       0       0       0       0       0       0       0       0
       0       0       0       0       0       0       0       0       0       0
       0       0       0       0       0       0       0       0       0       0
       0       0       0       0       0       0       0       0       0       0
       0       0       0       0       0       0       0       0       0       0
       0       0       0       0       0       0       0       0       0       0
       0       0       0       0       0       0       0       0       0       0
       0       0       0       0       0       0       0       0       0       0
       0       0       0       0       0       0       0       0       0       0
       0       0       0       0       0       0       0       0       0       0
       0       0       0       0       0       0       0       0       0       0
       0       0       0       0       0       0       0       0       0       0
       0       0       0       0       0       0       0       0       0       0
       0       0       0       0       0       0       0       0       0       0
       0       0       0       0       0       0       0       0       0       0
       0       0       0       0       0       0       0       0       0       0
       0       0       0       0       0       0       0       0       0       0
       0       0       0       0       0       0       0       0       0       0
       0       0       0       0       0       0       0       0       0       0
       0       0       0       0       0       0       0       0       0       0
       0       0       0       0       0       0       0       0       0       0
       0       0       0       0       0       0       0       0       0       0
       0       0       0       0       0       0       0       0       0       0
       0       0       0       0       0       0       0       0       0       0
%FLAG IROTAT                                                                    
%FORMAT(10I8)                                                                   
       0       0       0       0       0       0       0       0       0       0
       0       0       0       0       0       0       0       0       0       0
       0       0       0       0       0       0       0       0       0       0
       0       0       0       0       0       0       0       0       0       0
       0       0       0       0       0       0       0       0       0       0
       0       0       0       0       0       0       0       0       0       0
       0       0       0       0       0       0       0       0       0       0
       0       0       0       0       0       0       0       0       0       0
       0       0       0       0       0       0       0       0       0       0
       0       0       0       0       0       0       0       0       0       0
       0       0       0       0       0       0       0       0       0       0
       0       0       0       0       0       0       0       0       0       0
       0       0       0       0       0       0       0       0       0       0
       0       0       0       0       0       0       0       0       0       0
       0       0       0       0       0       0       0       0       0       0
       0       0       0       0       0       0       0       0       0       0
       0       0       0       0       0       0       0       0       0       0
       0       0       0       0       0       0       0       0       0       0
       0       0       0       0       0       0       0       0       0       0
       0       0       0       0       0       0       0       0       0       0
       0       0       0       0       0       0       0       0       0       0
       0       0       0       0       0       0       0       0       0       0
       0       0       0       0       0       0       0       0       0       0
       0       0       0       0       0       0       0       0       0       0
       0       0       0       0       0       0       0       0       0       0
       0       0       0       0       0       0       0       0       0       0
       0       0       0       0       0       0       0       0       0       0
       0       0       0       0       0       0       0       0       0       0
       0       0       0       0       0       0       0       0       0       0
       0       0       0       0       0       0       0       0       0       0
       0       0       0       0       0       0       0       0       0       0
       0       0       0       0       0       0       0       0       0       0
       0       0       0       0       0       0       0       0       0       0
       0       0       0       0       0       0       0       0       0       0
       0       0       0       0       0       0       0       0       0       0
       0       0       0       0       0       0       0       0       0       0
       0       0       0       0       0       0       0       0       0       0
       0       0       0       0       0       0       0       0       0       0
       0       0       0       0       0       0       0       0       0       0
       0       0       0       0       0       0       0       0       0       0
       0       0       0       0       0       0       0       0       0       0
       0       0       0       0       0       0       0       0       0       0
       0       0       0       0       0       0       0       0       0       0
       0       0       0       0       0       0       0       0       0       0
       0       0       0       0       0       0       0       0       0       0
       0       0       0       0       0       0       0       0       0       0
       0       0       0       0       0       0       0       0       0       0
       0       0       0       0       0       0       0       0       0       0
       0       0       0       0       0       0       0       0       0       0
       0       0       0       0       0       0       0       0       0       0
       0       0       0       0       0       0       0       0       0       0
       0       0       0       0       0       0       0       0       0       0
       0       0       0       0       0       0       0       0       0       0
       0       0       0       0       0       0       0       0       0       0
       0       0       0       0       0       0       0       0       0       0
       0       0       0       0       0       0       0       0       0       0
       0       0       0       0       0       0       0       0       0       0
       0       0       0       0       0       0       0       0       0       0
       0       0       0       0       0       0       0       0       0       0
       0       0       0       0       0       0       0       0       0       0
       0       0       0       0       0       0       0       0       0       0
       0       0       0       0       0       0       0       0       0       0
       0       0       0       0       0       0       0       0       0       0
       0       0       0       0       0       0       0       0       0       0
       0       0       0       0       0       0       0       0       0       0
       0       0       0       0       0       0       0       0       0       0
       0       0       0       0       0       0       0       0       0       0
       0       0       0       0       0       0       0       0       0       0
       0       0       0       0       0       0       0       0       0       0
       0       0       0       0       0       0       0       0       0       0
       0       0       0       0       0       0       0       0       0       0
       0       0       0       0       0       0       0       0       0       0
       0       0       0       0       0       0       0       0       0       0
       0       0       0       0       0       0       0       0       0       0
       0       0       0       0       0       0       0       0       0       0
       0       0       0       0       0       0       0       0       0       0
       0       0       0       0       0       0       0       0       0       0
       0       0       0       0       0       0       0       0       0       0
       0       0       0       0       0       0       0       0       0       0
       0       0       0       0       0       0       0       0       0       0
       0       0       0       0       0       0       0       0       0       0
       0       0       0       0       0       0       0       0       0       0
       0       0       0       0       0       0       0       0       0       0
       0       0       0       0       0       0       0       0       0       0
       0       0       0       0       0       0       0       0       0       0
       0       0       0       0       0       0       0       0       0       0
       0       0       0       0       0       0       0       0       0       0
       0       0       0       0       0       0       0       0       0       0
       0       0       0       0       0       0       0       0       0       0
       0       0       0       0       0       0       0       0       0       0
       0       0       0       0       0       0       0       0       0       0
       0       0       0       0       0       0       0       0       0       0
       0       0       0       0       0       0       0       0       0       0
       0       0       0       0       0       0       0       0       0       0
       0       0       0       0       0       0       0       0       0       0
       0       0       0       0       0       0       0       0       0       0
       0       0       0       0       0       0       0       0       0       0
       0       0       0       0       0       0       0       0       0       0
       0       0       0       0       0       0       0       0       0       0
       0       0       0       0       0       0       0       0       0       0
       0       0       0       0       0       0       0       0       0       0
       0       0       0       0       0       0       0       0       0       0
       0       0       0       0       0       0       0       0       0       0
       0       0       0       0       0       0       0       0       0       0
       0       0       0       0       0       0       0       0       0       0
       0       0       0       0       0       0       0       0       0       0
       0       0       0       0       0       0       0       0       0       0
       0       0       0       0       0       0       0       0       0       0
       0       0       0       0       0       0       0       0       0       0
       0       0       0       0       0       0       0       0       0       0
       0       0       0       0       0       0       0       0       0       0
       0       0       0       0       0       0       0       0       0       0
       0       0       0       0       0       0       0       0       0       0
       0       0       0       0       0       0       0       0       0       0
       0       0       0       0       0       0       0       0       0       0
       0       0       0       0       0       0       0       0       0       0
       0       0       0       0       0       0       0       0       0       0
       0       0       0       0       0       0       0       0       0       0
       0       0       0       0       0       0       0       0       0       0
       0       0       0       0       0       0       0       0       0       0
       0       0       0       0       0       0       0       0       0       0
       0       0       0       0       0       0       0       0       0       0
       0       0       0       0       0       0       0       0       0       0
       0       0       0       0       0       0       0       0       0       0
       0       0       0       0       0       0       0       0       0       0
       0       0       0       0       0       0       0       0       0       0
       0       0       0       0       0       0       0       0       0       0
       0       0       0       0       0       0       0       0       0       0
       0       0       0       0       0       0       0       0       0       0
       0       0       0       0       0       0       0       0       0       0
       0       0       0       0       0       0       0       0       0       0
       0       0       0       0       0       0       0       0       0       0
       0       0       0       0       0       0       0       0       0       0
       0       0       0       0       0       0       0       0       0       0
       0       0       0       0       0       0       0       0       0       0
       0       0       0       0       0       0       0       0       0       0
       0       0       0       0       0       0       0       0       0       0
       0       0       0       0       0       0       0       0       0       0
       0       0       0       0       0       0       0       0       0       0
       0       0       0       0       0       0       0       0       0       0
       0       0       0       0       0       0       0       0       0       0
       0       0       0       0       0       0       0       0       0       0
       0       0       0       0       0       0       0       0       0       0
       0       0       0       0       0       0       0       0       0       0
       0       0       0       0       0       0       0       0       0       0
       0       0       0       0       0       0       0       0       0       0
       0       0       0       0       0       0       0       0       0       0
       0       0       0       0       0       0       0       0       0       0
       0       0       0       0       0       0       0       0       0       0
       0       0       0       0       0       0       0       0       0       0
       0       0       0       0       0       0       0       0       0       0
       0       0       0       0       0       0       0       0       0       0
       0       0       0       0       0       0       0       0       0       0
       0       0       0       0       0       0       0       0       0       0
       0       0       0       0       0       0       0       0       0       0
       0       0       0       0       0       0       0       0       0       0
       0       0       0       0       0       0       0       0       0       0
       0       0       0       0       0       0       0       0       0       0
       0       0       0       0       0       0       0       0       0       0
       0       0       0       0       0       0       0       0       0       0
       0       0       0       0       0       0       0       0       0       0
       0       0       0       0       0       0       0       0       0       0
       0       0       0       0       0       0       0       0       0       0
       0       0       0       0       0       0       0       0       0       0
       0       0       0       0       0       0       0       0       0       0
       0       0       0       0       0       0       0       0       0       0
       0       0       0       0       0       0       0       0       0       0
       0       0       0       0       0       0       0       0       0       0
       0       0       0       0       0       0       0       0       0       0
       0       0       0       0       0       0       0       0       0       0
       0       0       0       0       0       0       0       0       0       0
       0       0       0       0       0       0       0       0       0       0
       0       0       0       0       0       0       0       0       0       0
       0       0       0       0       0       0       0       0       0       0
       0       0       0       0       0       0       0       0       0       0
       0       0       0       0       0       0       0       0       0       0
       0       0       0       0       0       0       0       0       0       0
       0       0       0       0       0       0       0       0       0       0
       0       0       0       0       0       0       0       0       0       0
       0       0       0       0       0       0       0       0       0       0
       0       0       0       0       0       0       0       0       0       0
       0       0       0       0       0       0       0       0       0       0
       0       0       0       0       0       0       0       0       0       0
       0       0       0       0       0       0       0       0       0       0
       0       0       0       0       0       0       0       0       0       0
       0       0       0       0       0       0       0       0       0       0
       0       0       0       0       0       0       0       0       0       0
       0       0       0       0       0       0       0       0       0       0
       0       0       0       0       0       0       0       0       0       0
       0       0       0       0       0       0       0       0       0       0
       0       0       0       0       0       0       0       0       0       0
       0       0       0       0       0       0       0       0       0       0
       0       0       0       0       0       0       0       0       0       0
       0       0       0       0       0       0       0       0       0       0
       0       0       0       0       0       0       0       0       0       0
       0       0       0       0       0       0       0       0       0       0
       0       0       0       0       0       0       0       0       0       0
       0       0       0       0       0       0       0       0       0       0
       0       0       0       0       0       0       0       0       0       0
       0       0       0       0       0       0       0       0       0       0
       0       0       0       0       0       0       0       0       0       0
       0       0       0       0       0       0       0       0       0       0
       0       0       0       0       0       0       0       0       0       0
       0       0       0       0       0       0       0       0       0       0
       0       0       0       0       0       0       0       0       0       0
       0       0       0       0       0       0       0       0       0       0
       0       0       0       0       0       0       0       0       0       0
       0       0       0       0       0       0       0       0       0       0
%FLAG SOLVENT_POINTERS                                                          
%FORMAT(3I8)                                                                    
     341     341     342
%FLAG ATOMS_PER_MOLECULE                                                        
%FORMAT(10I8)                                                                   
      40       6       6       6       6       6       6       6       6       6
       6       6       6       6       6       6       6       6       6       6
       6       6       6       6       6       6       6       6       6       6
       6       6       6       6       6       6       6       6       6       6
       6       6       6       6       6       6       6       6       6       6
       6       6       6       6       6       6       6       6       6       6
       6       6       6       6       6       6       6       6       6       6
       6       6       6       6       6       6       6       6       6       6
       6       6       6       6       6       6       6       6       6       6
       6       6       6       6       6       6       6       6       6       6
       6       6       6       6       6       6       6       6       6       6
       6       6       6       6       6       6       6       6       6       6
       6       6       6       6       6       6       6       6       6       6
       6       6       6       6       6       6       6       6       6       6
       6       6       6       6       6       6       6       6       6       6
       6       6       6       6       6       6       6       6       6       6
       6       6       6       6       6       6       6       6       6       6
       6       6       6       6       6       6       6       6       6       6
       6       6       6       6       6       6       6       6       6       6
       6       6       6       6       6       6       6       6       6       6
       6       6       6       6       6       6       6       6       6       6
       6       6       6       6       6       6       6       6       6       6
       6       6       6       6       6       6       6       6       6       6
       6       6       6       6       6       6       6       6       6       6
       6       6       6       6       6       6       6       6       6       6
       6       6       6       6       6       6       6       6       6       6
       6       6       6       6       6       6       6       6       6       6
       6       6       6       6       6       6       6       6       6       6
       6       6       6       6       6       6       6       6       6       6
       6       6       6       6       6       6       6       6       6       6
       6       6       6       6       6       6       6       6       6       6
       6       6       6       6       6       6       6       6       6       6
       6       6       6       6       6       6       6       6       6       6
       6       6       6       6       6       6       6       6       6       6
       6
%FLAG BOX_DIMENSIONS                                                            
%FORMAT(5E16.8)                                                                 
  9.00000000E+01  3.48000000E+01  3.48000000E+01  3.48000000E+01
%FLAG RADIUS_SET                                                                
%FORMAT(1a80)                                                                   
modified Bondi radii (mbondi)                                                   
%FLAG RADII                                                                     
%FORMAT(5E16.8)                                                                 
  1.50000000E+00  1.50000000E+00  1.50000000E+00  1.50000000E+00  1.55000000E+00
  1.55000000E+00  1.70000000E+00  1.70000000E+00  1.70000000E+00  1.70000000E+00
  1.70000000E+00  1.70000000E+00  1.70000000E+00  1.70000000E+00  1.70000000E+00
  1.70000000E+00  1.70000000E+00  1.70000000E+00  1.70000000E+00  1.70000000E+00
  1.70000000E+00  1.70000000E+00  1.70000000E+00  1.70000000E+00  1.70000000E+00
  1.70000000E+00  1.70000000E+00  1.70000000E+00  1.70000000E+00  1.70000000E+00
  1.30000000E+00  1.30000000E+00  1.30000000E+00  1.30000000E+00  1.30000000E+00
  1.30000000E+00  1.30000000E+00  1.30000000E+00  1.30000000E+00  1.30000000E+00
  1.55000000E+00  1.70000000E+00  1.70000000E+00  1.30000000E+00  1.30000000E+00
  1.30000000E+00  1.55000000E+00  1.70000000E+00  1.70000000E+00  1.30000000E+00
  1.30000000E+00  1.30000000E+00  1.55000000E+00  1.70000000E+00  1.70000000E+00
  1.30000000E+00  1.30000000E+00  1.30000000E+00  1.55000000E+00  1.70000000E+00
  1.70000000E+00  1.30000000E+00  1.30000000E+00  1.30000000E+00  1.55000000E+00
  1.70000000E+00  1.70000000E+00  1.30000000E+00  1.30000000E+00  1.30000000E+00
  1.55000000E+00  1.70000000E+00  1.70000000E+00  1.30000000E+00  1.30000000E+00
  1.30000000E+00  1.55000000E+00  1.70000000E+00  1.70000000E+00  1.30000000E+00
  1.30000000E+00  1.30000000E+00  1.55000000E+00  1.70000000E+00  1.70000000E+00
  1.30000000E+00  1.30000000E+00  1.30000000E+00  1.55000000E+00  1.70000000E+00
  1.70000000E+00  1.30000000E+00  1.30000000E+00  1.30000000E+00  1.55000000E+00
  1.70000000E+00  1.70000000E+00  1.30000000E+00  1.30000000E+00  1.30000000E+00
  1.55000000E+00  1.70000000E+00  1.70000000E+00  1.30000000E+00  1.30000000E+00
  1.30000000E+00  1.55000000E+00  1.70000000E+00  1.70000000E+00  1.30000000E+00
  1.30000000E+00  1.30000000E+00  1.55000000E+00  1.70000000E+00  1.70000000E+00
  1.30000000E+00  1.30000000E+00  1.30000000E+00  1.55000000E+00  1.70000000E+00
  1.70000000E+00  1.30000000E+00  1.30000000E+00  1.30000000E+00  1.55000000E+00
  1.70000000E+00  1.70000000E+00  1.30000000E+00  1.30000000E+00  1.30000000E+00
  1.55000000E+00  1.70000000E+00  1.70000000E+00  1.30000000E+00  1.30000000E+00
  1.30000000E+00  1.55000000E+00  1.70000000E+00  1.70000000E+00  1.30000000E+00
  1.30000000E+00  1.30000000E+00  1.55000000E+00  1.70000000E+00  1.70000000E+00
  1.30000000E+00  1.30000000E+00  1.30000000E+00  1.55000000E+00  1.70000000E+00
  1.70000000E+00  1.30000000E+00  1.30000000E+00  1.30000000E+00  1.55000000E+00
  1.70000000E+00  1.70000000E+00  1.30000000E+00  1.30000000E+00  1.30000000E+00
  1.55000000E+00  1.70000000E+00  1.70000000E+00  1.30000000E+00  1.30000000E+00
  1.30000000E+00  1.55000000E+00  1.70000000E+00  1.70000000E+00  1.30000000E+00
  1.30000000E+00  1.30000000E+00  1.55000000E+00  1.70000000E+00  1.70000000E+00
  1.30000000E+00  1.30000000E+00  1.30000000E+00  1.55000000E+00  1.70000000E+00
  1.70000000E+00  1.30000000E+00  1.30000000E+00  1.30000000E+00  1.55000000E+00
  1.70000000E+00  1.70000000E+00  1.30000000E+00  1.30000000E+00  1.30000000E+00
  1.55000000E+00  1.70000000E+00  1.70000000E+00  1.30000000E+00  1.30000000E+00
  1.30000000E+00  1.55000000E+00  1.70000000E+00  1.70000000E+00  1.30000000E+00
  1.30000000E+00  1.30000000E+00  1.55000000E+00  1.70000000E+00  1.70000000E+00
  1.30000000E+00  1.30000000E+00  1.30000000E+00  1.55000000E+00  1.70000000E+00
  1.70000000E+00  1.30000000E+00  1.30000000E+00  1.30000000E+00  1.55000000E+00
  1.70000000E+00  1.70000000E+00  1.30000000E+00  1.30000000E+00  1.30000000E+00
  1.55000000E+00  1.70000000E+00  1.70000000E+00  1.30000000E+00  1.30000000E+00
  1.30000000E+00  1.55000000E+00  1.70000000E+00  1.70000000E+00  1.30000000E+00
  1.30000000E+00  1.30000000E+00  1.55000000E+00  1.70000000E+00  1.70000000E+00
  1.30000000E+00  1.30000000E+00  1.30000000E+00  1.55000000E+00  1.70000000E+00
  1.70000000E+00  1.30000000E+00  1.30000000E+00  1.30000000E+00  1.55000000E+00
  1.70000000E+00  1.70000000E+00  1.30000000E+00  1.30000000E+00  1.30000000E+00
  1.55000000E+00  1.70000000E+00  1.70000000E+00  1.30000000E+00  1.30000000E+00
  1.30000000E+00  1.55000000E+00  1.70000000E+00  1.70000000E+00  1.30000000E+00
  1.30000000E+00  1.30000000E+00  1.55000000E+00  1.70000000E+00  1.70000000E+00
  1.30000000E+00  1.30000000E+00  1.30000000E+00  1.55000000E+00  1.70000000E+00
  1.70000000E+00  1.30000000E+00  1.30000000E+00  1.30000000E+00  1.55000000E+00
  1.70000000E+00  1.70000000E+00  1.30000000E+00  1.30000000E+00  1.30000000E+00
  1.55000000E+00  1.70000000E+00  1.70000000E+00  1.30000000E+00  1.30000000E+00
  1.30000000E+00  1.55000000E+00  1.70000000E+00  1.70000000E+00  1.30000000E+00
  1.30000000E+00  1.30000000E+00  1.55000000E+00  1.70000000E+00  1.70000000E+00
  1.30000000E+00  1.30000000E+00  1.30000000E+00  1.55000000E+00  1.70000000E+00
  1.70000000E+00  1.30000000E+00  1.30000000E+00  1.30000000E+00  1.55000000E+00
  1.70000000E+00  1.70000000E+00  1.30000000E+00  1.30000000E+00  1.30000000E+00
  1.55000000E+00  1.70000000E+00  1.70000000E+00  1.30000000E+00  1.30000000E+00
  1.30000000E+00  1.55000000E+00  1.70000000E+00  1.70000000E+00  1.30000000E+00
  1.30000000E+00  1.30000000E+00  1.55000000E+00  1.70000000E+00  1.70000000E+00
  1.30000000E+00  1.30000000E+00  1.30000000E+00  1.55000000E+00  1.70000000E+00
  1.70000000E+00  1.30000000E+00  1.30000000E+00  1.30000000E+00  1.55000000E+00
  1.70000000E+00  1.70000000E+00  1.30000000E+00  1.30000000E+00  1.30000000E+00
  1.55000000E+00  1.70000000E+00  1.70000000E+00  1.30000000E+00  1.30000000E+00
  1.30000000E+00  1.55000000E+00  1.70000000E+00  1.70000000E+00  1.30000000E+00
  1.30000000E+00  1.30000000E+00  1.55000000E+00  1.70000000E+00  1.70000000E+00
  1.30000000E+00  1.30000000E+00  1.30000000E+00  1.55000000E+00  1.70000000E+00
  1.70000000E+00  1.30000000E+00  1.30000000E+00  1.30000000E+00  1.55000000E+00
  1.70000000E+00  1.70000000E+00  1.30000000E+00  1.30000000E+00  1.30000000E+00
  1.55000000E+00  1.70000000E+00  1.70000000E+00  1.30000000E+00  1.30000000E+00
  1.30000000E+00  1.55000000E+00  1.70000000E+00  1.70000000E+00  1.30000000E+00
  1.30000000E+00  1.30000000E+00  1.55000000E+00  1.70000000E+00  1.70000000E+00
  1.30000000E+00  1.30000000E+00  1.30000000E+00  1.55000000E+00  1.70000000E+00
  1.70000000E+00  1.30000000E+00  1.30000000E+00  1.30000000E+00  1.55000000E+00
  1.70000000E+00  1.70000000E+00  1.30000000E+00  1.30000000E+00  1.30000000E+00
  1.55000000E+00  1.70000000E+00  1.70000000E+00  1.30000000E+00  1.30000000E+00
  1.30000000E+00  1.55000000E+00  1.70000000E+00  1.70000000E+00  1.30000000E+00
  1.30000000E+00  1.30000000E+00  1.55000000E+00  1.70000000E+00  1.70000000E+00
  1.30000000E+00  1.30000000E+00  1.30000000E+00  1.55000000E+00  1.70000000E+00
  1.70000000E+00  1.30000000E+00  1.30000000E+00  1.30000000E+00  1.55000000E+00
  1.70000000E+00  1.70000000E+00  1.30000000E+00  1.30000000E+00  1.30000000E+00
  1.55000000E+00  1.70000000E+00  1.70000000E+00  1.30000000E+00  1.30000000E+00
  1.30000000E+00  1.55000000E+00  1.70000000E+00  1.70000000E+00  1.30000000E+00
  1.30000000E+00  1.30000000E+00  1.55000000E+00  1.70000000E+00  1.70000000E+00
  1.30000000E+00  1.30000000E+00  1.30000000E+00  1.55000000E+00  1.70000000E+00
  1.70000000E+00  1.30000000E+00  1.30000000E+00  1.30000000E+00  1.55000000E+00
  1.70000000E+00  1.70000000E+00  1.30000000E+00  1.30000000E+00  1.30000000E+00
  1.55000000E+00  1.70000000E+00  1.70000000E+00  1.30000000E+00  1.30000000E+00
  1.30000000E+00  1.55000000E+00  1.70000000E+00  1.70000000E+00  1.30000000E+00
  1.30000000E+00  1.30000000E+00  1.55000000E+00  1.70000000E+00  1.70000000E+00
  1.30000000E+00  1.30000000E+00  1.30000000E+00  1.55000000E+00  1.70000000E+00
  1.70000000E+00  1.30000000E+00  1.30000000E+00  1.30000000E+00  1.55000000E+00
  1.70000000E+00  1.70000000E+00  1.30000000E+00  1.30000000E+00  1.30000000E+00
  1.55000000E+00  1.70000000E+00  1.70000000E+00  1.30000000E+00  1.30000000E+00
  1.30000000E+00  1.55000000E+00  1.70000000E+00  1.70000000E+00  1.30000000E+00
  1.30000000E+00  1.30000000E+00  1.55000000E+00  1.70000000E+00  1.70000000E+00
  1.30000000E+00  1.30000000E+00  1.30000000E+00  1.55000000E+00  1.70000000E+00
  1.70000000E+00  1.30000000E+00  1.30000000E+00  1.30000000E+00  1.55000000E+00
  1.70000000E+00  1.70000000E+00  1.30000000E+00  1.30000000E+00  1.30000000E+00
  1.55000000E+00  1.70000000E+00  1.70000000E+00  1.30000000E+00  1.30000000E+00
  1.30000000E+00  1.55000000E+00  1.70000000E+00  1.70000000E+00  1.30000000E+00
  1.30000000E+00  1.30000000E+00  1.55000000E+00  1.70000000E+00  1.70000000E+00
  1.30000000E+00  1.30000000E+00  1.30000000E+00  1.55000000E+00  1.70000000E+00
  1.70000000E+00  1.30000000E+00  1.30000000E+00  1.30000000E+00  1.55000000E+00
  1.70000000E+00  1.70000000E+00  1.30000000E+00  1.30000000E+00  1.30000000E+00
  1.55000000E+00  1.70000000E+00  1.70000000E+00  1.30000000E+00  1.30000000E+00
  1.30000000E+00  1.55000000E+00  1.70000000E+00  1.70000000E+00  1.30000000E+00
  1.30000000E+00  1.30000000E+00  1.55000000E+00  1.70000000E+00  1.70000000E+00
  1.30000000E+00  1.30000000E+00  1.30000000E+00  1.55000000E+00  1.70000000E+00
  1.70000000E+00  1.30000000E+00  1.30000000E+00  1.30000000E+00  1.55000000E+00
  1.70000000E+00  1.70000000E+00  1.30000000E+00  1.30000000E+00  1.30000000E+00
  1.55000000E+00  1.70000000E+00  1.70000000E+00  1.30000000E+00  1.30000000E+00
  1.30000000E+00  1.55000000E+00  1.70000000E+00  1.70000000E+00  1.30000000E+00
  1.30000000E+00  1.30000000E+00  1.55000000E+00  1.70000000E+00  1.70000000E+00
  1.30000000E+00  1.30000000E+00  1.30000000E+00  1.55000000E+00  1.70000000E+00
  1.70000000E+00  1.30000000E+00  1.30000000E+00  1.30000000E+00  1.55000000E+00
  1.70000000E+00  1.70000000E+00  1.30000000E+00  1.30000000E+00  1.30000000E+00
  1.55000000E+00  1.70000000E+00  1.70000000E+00  1.30000000E+00  1.30000000E+00
  1.30000000E+00  1.55000000E+00  1.70000000E+00  1.70000000E+00  1.30000000E+00
  1.30000000E+00  1.30000000E+00  1.55000000E+00  1.70000000E+00  1.70000000E+00
  1.30000000E+00  1.30000000E+00  1.30000000E+00  1.55000000E+00  1.70000000E+00
  1.70000000E+00  1.30000000E+00  1.30000000E+00  1.30000000E+00  1.55000000E+00
  1.70000000E+00  1.70000000E+00  1.30000000E+00  1.30000000E+00  1.30000000E+00
  1.55000000E+00  1.70000000E+00  1.70000000E+00  1.30000000E+00  1.30000000E+00
  1.30000000E+00  1.55000000E+00  1.70000000E+00  1.70000000E+00  1.30000000E+00
  1.30000000E+00  1.30000000E+00  1.55000000E+00  1.70000000E+00  1.70000000E+00
  1.30000000E+00  1.30000000E+00  1.30000000E+00  1.55000000E+00  1.70000000E+00
  1.70000000E+00  1.30000000E+00  1.30000000E+00  1.30000000E+00  1.55000000E+00
  1.70000000E+00  1.70000000E+00  1.30000000E+00  1.30000000E+00  1.30000000E+00
  1.55000000E+00  1.70000000E+00  1.70000000E+00  1.30000000E+00  1.30000000E+00
  1.30000000E+00  1.55000000E+00  1.70000000E+00  1.70000000E+00  1.30000000E+00
  1.30000000E+00  1.30000000E+00  1.55000000E+00  1.70000000E+00  1.70000000E+00
  1.30000000E+00  1.30000000E+00  1.30000000E+00  1.55000000E+00  1.70000000E+00
  1.70000000E+00  1.30000000E+00  1.30000000E+00  1.30000000E+00  1.55000000E+00
  1.70000000E+00  1.70000000E+00  1.30000000E+00  1.30000000E+00  1.30000000E+00
  1.55000000E+00  1.70000000E+00  1.70000000E+00  1.30000000E+00  1.30000000E+00
  1.30000000E+00  1.55000000E+00  1.70000000E+00  1.70000000E+00  1.30000000E+00
  1.30000000E+00  1.30000000E+00  1.55000000E+00  1.70000000E+00  1.70000000E+00
  1.30000000E+00  1.30000000E+00  1.30000000E+00  1.55000000E+00  1.70000000E+00
  1.70000000E+00  1.30000000E+00  1.30000000E+00  1.30000000E+00  1.55000000E+00
  1.70000000E+00  1.70000000E+00  1.30000000E+00  1.30000000E+00  1.30000000E+00
  1.55000000E+00  1.70000000E+00  1.70000000E+00  1.30000000E+00  1.30000000E+00
  1.30000000E+00  1.55000000E+00  1.70000000E+00  1.70000000E+00  1.30000000E+00
  1.30000000E+00  1.30000000E+00  1.55000000E+00  1.70000000E+00  1.70000000E+00
  1.30000000E+00  1.30000000E+00  1.30000000E+00  1.55000000E+00  1.70000000E+00
  1.70000000E+00  1.30000000E+00  1.30000000E+00  1.30000000E+00  1.55000000E+00
  1.70000000E+00  1.70000000E+00  1.30000000E+00  1.30000000E+00  1.30000000E+00
  1.55000000E+00  1.70000000E+00  1.70000000E+00  1.30000000E+00  1.30000000E+00
  1.30000000E+00  1.55000000E+00  1.70000000E+00  1.70000000E+00  1.30000000E+00
  1.30000000E+00  1.30000000E+00  1.55000000E+00  1.70000000E+00  1.70000000E+00
  1.30000000E+00  1.30000000E+00  1.30000000E+00  1.55000000E+00  1.70000000E+00
  1.70000000E+00  1.30000000E+00  1.30000000E+00  1.30000000E+00  1.55000000E+00
  1.70000000E+00  1.70000000E+00  1.30000000E+00  1.30000000E+00  1.30000000E+00
  1.55000000E+00  1.70000000E+00  1.70000000E+00  1.30000000E+00  1.30000000E+00
  1.30000000E+00  1.55000000E+00  1.70000000E+00  1.70000000E+00  1.30000000E+00
  1.30000000E+00  1.30000000E+00  1.55000000E+00  1.70000000E+00  1.70000000E+00
  1.30000000E+00  1.30000000E+00  1.30000000E+00  1.55000000E+00  1.70000000E+00
  1.70000000E+00  1.30000000E+00  1.30000000E+00  1.30000000E+00  1.55000000E+00
  1.70000000E+00  1.70000000E+00  1.30000000E+00  1.30000000E+00  1.30000000E+00
  1.55000000E+00  1.70000000E+00  1.70000000E+00  1.30000000E+00  1.30000000E+00
  1.30000000E+00  1.55000000E+00  1.70000000E+00  1.70000000E+00  1.30000000E+00
  1.30000000E+00  1.30000000E+00  1.55000000E+00  1.70000000E+00  1.70000000E+00
  1.30000000E+00  1.30000000E+00  1.30000000E+00  1.55000000E+00  1.70000000E+00
  1.70000000E+00  1.30000000E+00  1.30000000E+00  1.30000000E+00  1.55000000E+00
  1.70000000E+00  1.70000000E+00  1.30000000E+00  1.30000000E+00  1.30000000E+00
  1.55000000E+00  1.70000000E+00  1.70000000E+00  1.30000000E+00  1.30000000E+00
  1.30000000E+00  1.55000000E+00  1.70000000E+00  1.70000000E+00  1.30000000E+00
  1.30000000E+00  1.30000000E+00  1.55000000E+00  1.70000000E+00  1.70000000E+00
  1.30000000E+00  1.30000000E+00  1.30000000E+00  1.55000000E+00  1.70000000E+00
  1.70000000E+00  1.30000000E+00  1.30000000E+00  1.30000000E+00  1.55000000E+00
  1.70000000E+00  1.70000000E+00  1.30000000E+00  1.30000000E+00  1.30000000E+00
  1.55000000E+00  1.70000000E+00  1.70000000E+00  1.30000000E+00  1.30000000E+00
  1.30000000E+00  1.55000000E+00  1.70000000E+00  1.70000000E+00  1.30000000E+00
  1.30000000E+00  1.30000000E+00  1.55000000E+00  1.70000000E+00  1.70000000E+00
  1.30000000E+00  1.30000000E+00  1.30000000E+00  1.55000000E+00  1.70000000E+00
  1.70000000E+00  1.30000000E+00  1.30000000E+00  1.30000000E+00  1.55000000E+00
  1.70000000E+00  1.70000000E+00  1.30000000E+00  1.30000000E+00  1.30000000E+00
  1.55000000E+00  1.70000000E+00  1.70000000E+00  1.30000000E+00  1.30000000E+00
  1.30000000E+00  1.55000000E+00  1.70000000E+00  1.70000000E+00  1.30000000E+00
  1.30000000E+00  1.30000000E+00  1.55000000E+00  1.70000000E+00  1.70000000E+00
  1.30000000E+00  1.30000000E+00  1.30000000E+00  1.55000000E+00  1.70000000E+00
  1.70000000E+00  1.30000000E+00  1.30000000E+00  1.30000000E+00  1.55000000E+00
  1.70000000E+00  1.70000000E+00  1.30000000E+00  1.30000000E+00  1.30000000E+00
  1.55000000E+00  1.70000000E+00  1.70000000E+00  1.30000000E+00  1.30000000E+00
  1.30000000E+00  1.55000000E+00  1.70000000E+00  1.70000000E+00  1.30000000E+00
  1.30000000E+00  1.30000000E+00  1.55000000E+00  1.70000000E+00  1.70000000E+00
  1.30000000E+00  1.30000000E+00  1.30000000E+00  1.55000000E+00  1.70000000E+00
  1.70000000E+00  1.30000000E+00  1.30000000E+00  1.30000000E+00  1.55000000E+00
  1.70000000E+00  1.70000000E+00  1.30000000E+00  1.30000000E+00  1.30000000E+00
  1.55000000E+00  1.70000000E+00  1.70000000E+00  1.30000000E+00  1.30000000E+00
  1.30000000E+00  1.55000000E+00  1.70000000E+00  1.70000000E+00  1.30000000E+00
  1.30000000E+00  1.30000000E+00  1.55000000E+00  1.70000000E+00  1.70000000E+00
  1.30000000E+00  1.30000000E+00  1.30000000E+00  1.55000000E+00  1.70000000E+00
  1.70000000E+00  1.30000000E+00  1.30000000E+00  1.30000000E+00  1.55000000E+00
  1.70000000E+00  1.70000000E+00  1.30000000E+00  1.30000000E+00  1.30000000E+00
  1.55000000E+00  1.70000000E+00  1.70000000E+00  1.30000000E+00  1.30000000E+00
  1.30000000E+00  1.55000000E+00  1.70000000E+00  1.70000000E+00  1.30000000E+00
  1.30000000E+00  1.30000000E+00  1.55000000E+00  1.70000000E+00  1.70000000E+00
  1.30000000E+00  1.30000000E+00  1.30000000E+00  1.55000000E+00  1.70000000E+00
  1.70000000E+00  1.30000000E+00  1.30000000E+00  1.30000000E+00  1.55000000E+00
  1.70000000E+00  1.70000000E+00  1.30000000E+00  1.30000000E+00  1.30000000E+00
  1.55000000E+00  1.70000000E+00  1.70000000E+00  1.30000000E+00  1.30000000E+00
  1.30000000E+00  1.55000000E+00  1.70000000E+00  1.70000000E+00  1.30000000E+00
  1.30000000E+00  1.30000000E+00  1.55000000E+00  1.70000000E+00  1.70000000E+00
  1.30000000E+00  1.30000000E+00  1.30000000E+00  1.55000000E+00  1.70000000E+00
  1.70000000E+00  1.30000000E+00  1.30000000E+00  1.30000000E+00  1.55000000E+00
  1.70000000E+00  1.70000000E+00  1.30000000E+00  1.30000000E+00  1.30000000E+00
  1.55000000E+00  1.70000000E+00  1.70000000E+00  1.30000000E+00  1.30000000E+00
  1.30000000E+00  1.55000000E+00  1.70000000E+00  1.70000000E+00  1.30000000E+00
  1.30000000E+00  1.30000000E+00  1.55000000E+00  1.70000000E+00  1.70000000E+00
  1.30000000E+00  1.30000000E+00  1.30000000E+00  1.55000000E+00  1.70000000E+00
  1.70000000E+00  1.30000000E+00  1.30000000E+00  1.30000000E+00  1.55000000E+00
  1.70000000E+00  1.70000000E+00  1.30000000E+00  1.30000000E+00  1.30000000E+00
  1.55000000E+00  1.70000000E+00  1.70000000E+00  1.30000000E+00  1.30000000E+00
  1.30000000E+00  1.55000000E+00  1.70000000E+00  1.70000000E+00  1.30000000E+00
  1.30000000E+00  1.30000000E+00  1.55000000E+00  1.70000000E+00  1.70000000E+00
  1.30000000E+00  1.30000000E+00  1.30000000E+00  1.55000000E+00  1.70000000E+00
  1.70000000E+00  1.30000000E+00  1.30000000E+00  1.30000000E+00  1.55000000E+00
  1.70000000E+00  1.70000000E+00  1.30000000E+00  1.30000000E+00  1.30000000E+00
  1.55000000E+00  1.70000000E+00  1.70000000E+00  1.30000000E+00  1.30000000E+00
  1.30000000E+00  1.55000000E+00  1.70000000E+00  1.70000000E+00  1.30000000E+00
  1.30000000E+00  1.30000000E+00  1.55000000E+00  1.70000000E+00  1.70000000E+00
  1.30000000E+00  1.30000000E+00  1.30000000E+00  1.55000000E+00  1.70000000E+00
  1.70000000E+00  1.30000000E+00  1.30000000E+00  1.30000000E+00  1.55000000E+00
  1.70000000E+00  1.70000000E+00  1.30000000E+00  1.30000000E+00  1.30000000E+00
  1.55000000E+00  1.70000000E+00  1.70000000E+00  1.30000000E+00  1.30000000E+00
  1.30000000E+00  1.55000000E+00  1.70000000E+00  1.70000000E+00  1.30000000E+00
  1.30000000E+00  1.30000000E+00  1.55000000E+00  1.70000000E+00  1.70000000E+00
  1.30000000E+00  1.30000000E+00  1.30000000E+00  1.55000000E+00  1.70000000E+00
  1.70000000E+00  1.30000000E+00  1.30000000E+00  1.30000000E+00  1.55000000E+00
  1.70000000E+00  1.70000000E+00  1.30000000E+00  1.30000000E+00  1.30000000E+00
  1.55000000E+00  1.70000000E+00  1.70000000E+00  1.30000000E+00  1.30000000E+00
  1.30000000E+00  1.55000000E+00  1.70000000E+00  1.70000000E+00  1.30000000E+00
  1.30000000E+00  1.30000000E+00  1.55000000E+00  1.70000000E+00  1.70000000E+00
  1.30000000E+00  1.30000000E+00  1.30000000E+00  1.55000000E+00  1.70000000E+00
  1.70000000E+00  1.30000000E+00  1.30000000E+00  1.30000000E+00  1.55000000E+00
  1.70000000E+00  1.70000000E+00  1.30000000E+00  1.30000000E+00  1.30000000E+00
  1.55000000E+00  1.70000000E+00  1.70000000E+00  1.30000000E+00  1.30000000E+00
  1.30000000E+00  1.55000000E+00  1.70000000E+00  1.70000000E+00  1.30000000E+00
  1.30000000E+00  1.30000000E+00  1.55000000E+00  1.70000000E+00  1.70000000E+00
  1.30000000E+00  1.30000000E+00  1.30000000E+00  1.55000000E+00  1.70000000E+00
  1.70000000E+00  1.30000000E+00  1.30000000E+00  1.30000000E+00  1.55000000E+00
  1.70000000E+00  1.70000000E+00  1.30000000E+00  1.30000000E+00  1.30000000E+00
  1.55000000E+00  1.70000000E+00  1.70000000E+00  1.30000000E+00  1.30000000E+00
  1.30000000E+00  1.55000000E+00  1.70000000E+00  1.70000000E+00  1.30000000E+00
  1.30000000E+00  1.30000000E+00  1.55000000E+00  1.70000000E+00  1.70000000E+00
  1.30000000E+00  1.30000000E+00  1.30000000E+00  1.55000000E+00  1.70000000E+00
  1.70000000E+00  1.30000000E+00  1.30000000E+00  1.30000000E+00  1.55000000E+00
  1.70000000E+00  1.70000000E+00  1.30000000E+00  1.30000000E+00  1.30000000E+00
  1.55000000E+00  1.70000000E+00  1.70000000E+00  1.30000000E+00  1.30000000E+00
  1.30000000E+00  1.55000000E+00  1.70000000E+00  1.70000000E+00  1.30000000E+00
  1.30000000E+00  1.30000000E+00  1.55000000E+00  1.70000000E+00  1.70000000E+00
  1.30000000E+00  1.30000000E+00  1.30000000E+00  1.55000000E+00  1.70000000E+00
  1.70000000E+00  1.30000000E+00  1.30000000E+00  1.30000000E+00  1.55000000E+00
  1.70000000E+00  1.70000000E+00  1.30000000E+00  1.30000000E+00  1.30000000E+00
  1.55000000E+00  1.70000000E+00  1.70000000E+00  1.30000000E+00  1.30000000E+00
  1.30000000E+00  1.55000000E+00  1.70000000E+00  1.70000000E+00  1.30000000E+00
  1.30000000E+00  1.30000000E+00  1.55000000E+00  1.70000000E+00  1.70000000E+00
  1.30000000E+00  1.30000000E+00  1.30000000E+00  1.55000000E+00  1.70000000E+00
  1.70000000E+00  1.30000000E+00  1.30000000E+00  1.30000000E+00  1.55000000E+00
  1.70000000E+00  1.70000000E+00  1.30000000E+00  1.30000000E+00  1.30000000E+00
  1.55000000E+00  1.70000000E+00  1.70000000E+00  1.30000000E+00  1.30000000E+00
  1.30000000E+00  1.55000000E+00  1.70000000E+00  1.70000000E+00  1.30000000E+00
  1.30000000E+00  1.30000000E+00  1.55000000E+00  1.70000000E+00  1.70000000E+00
  1.30000000E+00  1.30000000E+00  1.30000000E+00  1.55000000E+00  1.70000000E+00
  1.70000000E+00  1.30000000E+00  1.30000000E+00  1.30000000E+00  1.55000000E+00
  1.70000000E+00  1.70000000E+00  1.30000000E+00  1.30000000E+00  1.30000000E+00
  1.55000000E+00  1.70000000E+00  1.70000000E+00  1.30000000E+00  1.30000000E+00
  1.30000000E+00  1.55000000E+00  1.70000000E+00  1.70000000E+00  1.30000000E+00
  1.30000000E+00  1.30000000E+00  1.55000000E+00  1.70000000E+00  1.70000000E+00
  1.30000000E+00  1.30000000E+00  1.30000000E+00  1.55000000E+00  1.70000000E+00
  1.70000000E+00  1.30000000E+00  1.30000000E+00  1.30000000E+00  1.55000000E+00
  1.70000000E+00  1.70000000E+00  1.30000000E+00  1.30000000E+00  1.30000000E+00
  1.55000000E+00  1.70000000E+00  1.70000000E+00  1.30000000E+00  1.30000000E+00
  1.30000000E+00  1.55000000E+00  1.70000000E+00  1.70000000E+00  1.30000000E+00
  1.30000000E+00  1.30000000E+00  1.55000000E+00  1.70000000E+00  1.70000000E+00
  1.30000000E+00  1.30000000E+00  1.30000000E+00  1.55000000E+00  1.70000000E+00
  1.70000000E+00  1.30000000E+00  1.30000000E+00  1.30000000E+00  1.55000000E+00
  1.70000000E+00  1.70000000E+00  1.30000000E+00  1.30000000E+00  1.30000000E+00
  1.55000000E+00  1.70000000E+00  1.70000000E+00  1.30000000E+00  1.30000000E+00
  1.30000000E+00  1.55000000E+00  1.70000000E+00  1.70000000E+00  1.30000000E+00
  1.30000000E+00  1.30000000E+00  1.55000000E+00  1.70000000E+00  1.70000000E+00
  1.30000000E+00  1.30000000E+00  1.30000000E+00  1.55000000E+00  1.70000000E+00
  1.70000000E+00  1.30000000E+00  1.30000000E+00  1.30000000E+00  1.55000000E+00
  1.70000000E+00  1.70000000E+00  1.30000000E+00  1.30000000E+00  1.30000000E+00
  1.55000000E+00  1.70000000E+00  1.70000000E+00  1.30000000E+00  1.30000000E+00
  1.30000000E+00  1.55000000E+00  1.70000000E+00  1.70000000E+00  1.30000000E+00
  1.30000000E+00  1.30000000E+00  1.55000000E+00  1.70000000E+00  1.70000000E+00
  1.30000000E+00  1.30000000E+00  1.30000000E+00  1.55000000E+00  1.70000000E+00
  1.70000000E+00  1.30000000E+00  1.30000000E+00  1.30000000E+00  1.55000000E+00
  1.70000000E+00  1.70000000E+00  1.30000000E+00  1.30000000E+00  1.30000000E+00
  1.55000000E+00  1.70000000E+00  1.70000000E+00  1.30000000E+00  1.30000000E+00
  1.30000000E+00  1.55000000E+00  1.70000000E+00  1.70000000E+00  1.30000000E+00
  1.30000000E+00  1.30000000E+00  1.55000000E+00  1.70000000E+00  1.70000000E+00
  1.30000000E+00  1.30000000E+00  1.30000000E+00  1.55000000E+00  1.70000000E+00
  1.70000000E+00  1.30000000E+00  1.30000000E+00  1.30000000E+00  1.55000000E+00
  1.70000000E+00  1.70000000E+00  1.30000000E+00  1.30000000E+00  1.30000000E+00
  1.55000000E+00  1.70000000E+00  1.70000000E+00  1.30000000E+00  1.30000000E+00
  1.30000000E+00  1.55000000E+00  1.70000000E+00  1.70000000E+00  1.30000000E+00
  1.30000000E+00  1.30000000E+00  1.55000000E+00  1.70000000E+00  1.70000000E+00
  1.30000000E+00  1.30000000E+00  1.30000000E+00  1.55000000E+00  1.70000000E+00
  1.70000000E+00  1.30000000E+00  1.30000000E+00  1.30000000E+00  1.55000000E+00
  1.70000000E+00  1.70000000E+00  1.30000000E+00  1.30000000E+00  1.30000000E+00
  1.55000000E+00  1.70000000E+00  1.70000000E+00  1.30000000E+00  1.30000000E+00
  1.30000000E+00  1.55000000E+00  1.70000000E+00  1.70000000E+00  1.30000000E+00
  1.30000000E+00  1.30000000E+00  1.55000000E+00  1.70000000E+00  1.70000000E+00
  1.30000000E+00  1.30000000E+00  1.30000000E+00  1.55000000E+00  1.70000000E+00
  1.70000000E+00  1.30000000E+00  1.30000000E+00  1.30000000E+00  1.55000000E+00
  1.70000000E+00  1.70000000E+00  1.30000000E+00  1.30000000E+00  1.30000000E+00
  1.55000000E+00  1.70000000E+00  1.70000000E+00  1.30000000E+00  1.30000000E+00
  1.30000000E+00  1.55000000E+00  1.70000000E+00  1.70000000E+00  1.30000000E+00
  1.30000000E+00  1.30000000E+00  1.55000000E+00  1.70000000E+00  1.70000000E+00
  1.30000000E+00  1.30000000E+00  1.30000000E+00  1.55000000E+00  1.70000000E+00
  1.70000000E+00  1.30000000E+00  1.30000000E+00  1.30000000E+00  1.55000000E+00
  1.70000000E+00  1.70000000E+00  1.30000000E+00  1.30000000E+00  1.30000000E+00
  1.55000000E+00  1.70000000E+00  1.70000000E+00  1.30000000E+00  1.30000000E+00
  1.30000000E+00  1.55000000E+00  1.70000000E+00  1.70000000E+00  1.30000000E+00
  1.30000000E+00  1.30000000E+00  1.55000000E+00  1.70000000E+00  1.70000000E+00
  1.30000000E+00  1.30000000E+00  1.30000000E+00  1.55000000E+00  1.70000000E+00
  1.70000000E+00  1.30000000E+00  1.30000000E+00  1.30000000E+00  1.55000000E+00
  1.70000000E+00  1.70000000E+00  1.30000000E+00  1.30000000E+00  1.30000000E+00
  1.55000000E+00  1.70000000E+00  1.70000000E+00  1.30000000E+00  1.30000000E+00
  1.30000000E+00  1.55000000E+00  1.70000000E+00  1.70000000E+00  1.30000000E+00
  1.30000000E+00  1.30000000E+00  1.55000000E+00  1.70000000E+00  1.70000000E+00
  1.30000000E+00  1.30000000E+00  1.30000000E+00  1.55000000E+00  1.70000000E+00
  1.70000000E+00  1.30000000E+00  1.30000000E+00  1.30000000E+00  1.55000000E+00
  1.70000000E+00  1.70000000E+00  1.30000000E+00  1.30000000E+00  1.30000000E+00
  1.55000000E+00  1.70000000E+00  1.70000000E+00  1.30000000E+00  1.30000000E+00
  1.30000000E+00  1.55000000E+00  1.70000000E+00  1.70000000E+00  1.30000000E+00
  1.30000000E+00  1.30000000E+00  1.55000000E+00  1.70000000E+00  1.70000000E+00
  1.30000000E+00  1.30000000E+00  1.30000000E+00  1.55000000E+00  1.70000000E+00
  1.70000000E+00  1.30000000E+00  1.30000000E+00  1.30000000E+00  1.55000000E+00
  1.70000000E+00  1.70000000E+00  1.30000000E+00  1.30000000E+00  1.30000000E+00
  1.55000000E+00  1.70000000E+00  1.70000000E+00  1.30000000E+00  1.30000000E+00
  1.30000000E+00  1.55000000E+00  1.70000000E+00  1.70000000E+00  1.30000000E+00
  1.30000000E+00  1.30000000E+00  1.55000000E+00  1.70000000E+00  1.70000000E+00
  1.30000000E+00  1.30000000E+00  1.30000000E+00  1.55000000E+00  1.70000000E+00
  1.70000000E+00  1.30000000E+00  1.30000000E+00  1.30000000E+00  1.55000000E+00
  1.70000000E+00  1.70000000E+00  1.30000000E+00  1.30000000E+00  1.30000000E+00
  1.55000000E+00  1.70000000E+00  1.70000000E+00  1.30000000E+00  1.30000000E+00
  1.30000000E+00  1.55000000E+00  1.70000000E+00  1.70000000E+00  1.30000000E+00
  1.30000000E+00  1.30000000E+00  1.55000000E+00  1.70000000E+00  1.70000000E+00
  1.30000000E+00  1.30000000E+00  1.30000000E+00  1.55000000E+00  1.70000000E+00
  1.70000000E+00  1.30000000E+00  1.30000000E+00  1.30000000E+00  1.55000000E+00
  1.70000000E+00  1.70000000E+00  1.30000000E+00  1.30000000E+00  1.30000000E+00
  1.55000000E+00  1.70000000E+00  1.70000000E+00  1.30000000E+00  1.30000000E+00
  1.30000000E+00  1.55000000E+00  1.70000000E+00  1.70000000E+00  1.30000000E+00
  1.30000000E+00  1.30000000E+00  1.55000000E+00  1.70000000E+00  1.70000000E+00
  1.30000000E+00  1.30000000E+00  1.30000000E+00  1.55000000E+00  1.70000000E+00
  1.70000000E+00  1.30000000E+00  1.30000000E+00  1.30000000E+00  1.55000000E+00
  1.70000000E+00  1.70000000E+00  1.30000000E+00  1.30000000E+00  1.30000000E+00
  1.55000000E+00  1.70000000E+00  1.70000000E+00  1.30000000E+00  1.30000000E+00
  1.30000000E+00  1.55000000E+00  1.70000000E+00  1.70000000E+00  1.30000000E+00
  1.30000000E+00  1.30000000E+00  1.55000000E+00  1.70000000E+00  1.70000000E+00
  1.30000000E+00  1.30000000E+00  1.30000000E+00  1.55000000E+00  1.70000000E+00
  1.70000000E+00  1.30000000E+00  1.30000000E+00  1.30000000E+00  1.55000000E+00
  1.70000000E+00  1.70000000E+00  1.30000000E+00  1.30000000E+00  1.30000000E+00
  1.55000000E+00  1.70000000E+00  1.70000000E+00  1.30000000E+00  1.30000000E+00
  1.30000000E+00  1.55000000E+00  1.70000000E+00  1.70000000E+00  1.30000000E+00
  1.30000000E+00  1.30000000E+00  1.55000000E+00  1.70000000E+00  1.70000000E+00
  1.30000000E+00  1.30000000E+00  1.30000000E+00  1.55000000E+00  1.70000000E+00
  1.70000000E+00  1.30000000E+00  1.30000000E+00  1.30000000E+00  1.55000000E+00
  1.70000000E+00  1.70000000E+00  1.30000000E+00  1.30000000E+00  1.30000000E+00
  1.55000000E+00  1.70000000E+00  1.70000000E+00  1.30000000E+00  1.30000000E+00
  1.30000000E+00  1.55000000E+00  1.70000000E+00  1.70000000E+00  1.30000000E+00
  1.30000000E+00  1.30000000E+00  1.55000000E+00  1.70000000E+00  1.70000000E+00
  1.30000000E+00  1.30000000E+00  1.30000000E+00  1.55000000E+00  1.70000000E+00
  1.70000000E+00  1.30000000E+00  1.30000000E+00  1.30000000E+00  1.55000000E+00
  1.70000000E+00  1.70000000E+00  1.30000000E+00  1.30000000E+00  1.30000000E+00
  1.55000000E+00  1.70000000E+00  1.70000000E+00  1.30000000E+00  1.30000000E+00
  1.30000000E+00  1.55000000E+00  1.70000000E+00  1.70000000E+00  1.30000000E+00
  1.30000000E+00  1.30000000E+00  1.55000000E+00  1.70000000E+00  1.70000000E+00
  1.30000000E+00  1.30000000E+00  1.30000000E+00  1.55000000E+00  1.70000000E+00
  1.70000000E+00  1.30000000E+00  1.30000000E+00  1.30000000E+00  1.55000000E+00
  1.70000000E+00  1.70000000E+00  1.30000000E+00  1.30000000E+00  1.30000000E+00
  1.55000000E+00  1.70000000E+00  1.70000000E+00  1.30000000E+00  1.30000000E+00
  1.30000000E+00  1.55000000E+00  1.70000000E+00  1.70000000E+00  1.30000000E+00
  1.30000000E+00  1.30000000E+00  1.55000000E+00  1.70000000E+00  1.70000000E+00
  1.30000000E+00  1.30000000E+00  1.30000000E+00  1.55000000E+00  1.70000000E+00
  1.70000000E+00  1.30000000E+00  1.30000000E+00  1.30000000E+00  1.55000000E+00
  1.70000000E+00  1.70000000E+00  1.30000000E+00  1.30000000E+00  1.30000000E+00
  1.55000000E+00  1.70000000E+00  1.70000000E+00  1.30000000E+00  1.30000000E+00
  1.30000000E+00  1.55000000E+00  1.70000000E+00  1.70000000E+00  1.30000000E+00
  1.30000000E+00  1.30000000E+00  1.55000000E+00  1.70000000E+00  1.70000000E+00
  1.30000000E+00  1.30000000E+00  1.30000000E+00  1.55000000E+00  1.70000000E+00
  1.70000000E+00  1.30000000E+00  1.30000000E+00  1.30000000E+00  1.55000000E+00
  1.70000000E+00  1.70000000E+00  1.30000000E+00  1.30000000E+00  1.30000000E+00
  1.55000000E+00  1.70000000E+00  1.70000000E+00  1.30000000E+00  1.30000000E+00
  1.30000000E+00  1.55000000E+00  1.70000000E+00  1.70000000E+00  1.30000000E+00
  1.30000000E+00  1.30000000E+00  1.55000000E+00  1.70000000E+00  1.70000000E+00
  1.30000000E+00  1.30000000E+00  1.30000000E+00  1.55000000E+00  1.70000000E+00
  1.70000000E+00  1.30000000E+00  1.30000000E+00  1.30000000E+00  1.55000000E+00
  1.70000000E+00  1.70000000E+00  1.30000000E+00  1.30000000E+00  1.30000000E+00
  1.55000000E+00  1.70000000E+00  1.70000000E+00  1.30000000E+00  1.30000000E+00
  1.30000000E+00  1.55000000E+00  1.70000000E+00  1.70000000E+00  1.30000000E+00
  1.30000000E+00  1.30000000E+00  1.55000000E+00  1.70000000E+00  1.70000000E+00
  1.30000000E+00  1.30000000E+00  1.30000000E+00  1.55000000E+00  1.70000000E+00
  1.70000000E+00  1.30000000E+00  1.30000000E+00  1.30000000E+00  1.55000000E+00
  1.70000000E+00  1.70000000E+00  1.30000000E+00  1.30000000E+00  1.30000000E+00
  1.55000000E+00  1.70000000E+00  1.70000000E+00  1.30000000E+00  1.30000000E+00
  1.30000000E+00  1.55000000E+00  1.70000000E+00  1.70000000E+00  1.30000000E+00
  1.30000000E+00  1.30000000E+00  1.55000000E+00  1.70000000E+00  1.70000000E+00
  1.30000000E+00  1.30000000E+00  1.30000000E+00  1.55000000E+00  1.70000000E+00
  1.70000000E+00  1.30000000E+00  1.30000000E+00  1.30000000E+00  1.55000000E+00
  1.70000000E+00  1.70000000E+00  1.30000000E+00  1.30000000E+00  1.30000000E+00
  1.55000000E+00  1.70000000E+00  1.70000000E+00  1.30000000E+00  1.30000000E+00
  1.30000000E+00  1.55000000E+00  1.70000000E+00  1.70000000E+00  1.30000000E+00
  1.30000000E+00  1.30000000E+00  1.55000000E+00  1.70000000E+00  1.70000000E+00
  1.30000000E+00  1.30000000E+00  1.30000000E+00  1.55000000E+00  1.70000000E+00
  1.70000000E+00  1.30000000E+00  1.30000000E+00  1.30000000E+00  1.55000000E+00
  1.70000000E+00  1.70000000E+00  1.30000000E+00  1.30000000E+00  1.30000000E+00
%FLAG SCREEN                                                                    
%FORMAT(5E16.8)                                                                 
  8.50000000E-01  8.50000000E-01  8.50000000E-01  8.50000000E-01  7.90000000E-01
  7.90000000E-01  7.20000000E-01  7.20000000E-01  7.20000000E-01  7.20000000E-01
  7.20000000E-01  7.20000000E-01  7.20000000E-01  7.20000000E-01  7.20000000E-01
  7.20000000E-01  7.20000000E-01  7.20000000E-01  7.20000000E-01  7.20000000E-01
  7.20000000E-01  7.20000000E-01  7.20000000E-01  7.20000000E-01  7.20000000E-01
  7.20000000E-01  7.20000000E-01  7.20000000E-01  7.20000000E-01  7.20000000E-01
  8.50000000E-01  8.50000000E-01  8.50000000E-01  8.50000000E-01  8.50000000E-01
  8.50000000E-01  8.50000000E-01  8.50000000E-01  8.50000000E-01  8.50000000E-01
  7.90000000E-01  7.20000000E-01  7.20000000E-01  8.50000000E-01  8.50000000E-01
  8.50000000E-01  7.90000000E-01  7.20000000E-01  7.20000000E-01  8.50000000E-01
  8.50000000E-01  8.50000000E-01  7.90000000E-01  7.20000000E-01  7.20000000E-01
  8.50000000E-01  8.50000000E-01  8.50000000E-01  7.90000000E-01  7.20000000E-01
  7.20000000E-01  8.50000000E-01  8.50000000E-01  8.50000000E-01  7.90000000E-01
  7.20000000E-01  7.20000000E-01  8.50000000E-01  8.50000000E-01  8.50000000E-01
  7.90000000E-01  7.20000000E-01  7.20000000E-01  8.50000000E-01  8.50000000E-01
  8.50000000E-01  7.90000000E-01  7.20000000E-01  7.20000000E-01  8.50000000E-01
  8.50000000E-01  8.50000000E-01  7.90000000E-01  7.20000000E-01  7.20000000E-01
  8.50000000E-01  8.50000000E-01  8.50000000E-01  7.90000000E-01  7.20000000E-01
  7.20000000E-01  8.50000000E-01  8.50000000E-01  8.50000000E-01  7.90000000E-01
  7.20000000E-01  7.20000000E-01  8.50000000E-01  8.50000000E-01  8.50000000E-01
  7.90000000E-01  7.20000000E-01  7.20000000E-01  8.50000000E-01  8.50000000E-01
  8.50000000E-01  7.90000000E-01  7.20000000E-01  7.20000000E-01  8.50000000E-01
  8.50000000E-01  8.50000000E-01  7.90000000E-01  7.20000000E-01  7.20000000E-01
  8.50000000E-01  8.50000000E-01  8.50000000E-01  7.90000000E-01  7.20000000E-01
  7.20000000E-01  8.50000000E-01  8.50000000E-01  8.50000000E-01  7.90000000E-01
  7.20000000E-01  7.20000000E-01  8.50000000E-01  8.50000000E-01  8.50000000E-01
  7.90000000E-01  7.20000000E-01  7.20000000E-01  8.50000000E-01  8.50000000E-01
  8.50000000E-01  7.90000000E-01  7.20000000E-01  7.20000000E-01  8.50000000E-01
  8.50000000E-01  8.50000000E-01  7.90000000E-01  7.20000000E-01  7.20000000E-01
  8.50000000E-01  8.50000000E-01  8.50000000E-01  7.90000000E-01  7.20000000E-01
  7.20000000E-01  8.50000000E-01  8.50000000E-01  8.50000000E-01  7.90000000E-01
  7.20000000E-01  7.20000000E-01  8.50000000E-01  8.50000000E-01  8.50000000E-01
  7.90000000E-01  7.20000000E-01  7.20000000E-01  8.50000000E-01  8.50000000E-01
  8.50000000E-01  7.90000000E-01  7.20000000E-01  7.20000000E-01  8.50000000E-01
  8.50000000E-01  8.50000000E-01  7.90000000E-01  7.20000000E-01  7.20000000E-01
  8.50000000E-01  8.50000000E-01  8.50000000E-01  7.90000000E-01  7.20000000E-01
  7.20000000E-01  8.50000000E-01  8.50000000E-01  8.50000000E-01  7.90000000E-01
  7.20000000E-01  7.20000000E-01  8.50000000E-01  8.50000000E-01  8.50000000E-01
  7.90000000E-01  7.20000000E-01  7.20000000E-01  8.50000000E-01  8.50000000E-01
  8.50000000E-01  7.90000000E-01  7.20000000E-01  7.20000000E-01  8.50000000E-01
  8.50000000E-01  8.50000000E-01  7.90000000E-01  7.20000000E-01  7.20000000E-01
  8.50000000E-01  8.50000000E-01  8.50000000E-01  7.90000000E-01  7.20000000E-01
  7.20000000E-01  8.50000000E-01  8.50000000E-01  8.50000000E-01  7.90000000E-01
  7.20000000E-01  7.20000000E-01  8.50000000E-01  8.50000000E-01  8.50000000E-01
  7.90000000E-01  7.20000000E-01  7.20000000E-01  8.50000000E-01  8.50000000E-01
  8.50000000E-01  7.90000000E-01  7.20000000E-01  7.20000000E-01  8.50000000E-01
  8.50000000E-01  8.50000000E-01  7.90000000E-01  7.20000000E-01  7.20000000E-01
  8.50000000E-01  8.50000000E-01  8.50000000E-01  7.90000000E-01  7.20000000E-01
  7.20000000E-01  8.50000000E-01  8.50000000E-01  8.50000000E-01  7.90000000E-01
  7.20000000E-01  7.20000000E-01  8.50000000E-01  8.50000000E-01  8.50000000E-01
  7.90000000E-01  7.20000000E-01  7.20000000E-01  8.50000000E-01  8.50000000E-01
  8.50000000E-01  7.90000000E-01  7.20000000E-01  7.20000000E-01  8.50000000E-01
  8.50000000E-01  8.50000000E-01  7.90000000E-01  7.20000000E-01  7.20000000E-01
  8.50000000E-01  8.50000000E-01  8.50000000E-01  7.90000000E-01  7.20000000E-01
  7.20000000E-01  8.50000000E-01  8.50000000E-01  8.50000000E-01  7.90000000E-01
  7.20000000E-01  7.20000000E-01  8.50000000E-01  8.50000000E-01  8.50000000E-01
  7.90000000E-01  7.20000000E-01  7.20000000E-01  8.50000000E-01  8.50000000E-01
  8.50000000E-01  7.90000000E-01  7.20000000E-01  7.20000000E-01  8.50000000E-01
  8.50000000E-01  8.50000000E-01  7.90000000E-01  7.20000000E-01  7.20000000E-01
  8.50000000E-01  8.50000000E-01  8.50000000E-01  7.90000000E-01  7.20000000E-01
  7.20000000E-01  8.50000000E-01  8.50000000E-01  8.50000000E-01  7.90000000E-01
  7.20000000E-01  7.20000000E-01  8.50000000E-01  8.50000000E-01  8.50000000E-01
  7.90000000E-01  7.20000000E-01  7.20000000E-01  8.50000000E-01  8.50000000E-01
  8.50000000E-01  7.90000000E-01  7.20000000E-01  7.20000000E-01  8.50000000E-01
  8.50000000E-01  8.50000000E-01  7.90000000E-01  7.20000000E-01  7.20000000E-01
  8.50000000E-01  8.50000000E-01  8.50000000E-01  7.90000000E-01  7.20000000E-01
  7.20000000E-01  8.50000000E-01  8.50000000E-01  8.50000000E-01  7.90000000E-01
  7.20000000E-01  7.20000000E-01  8.50000000E-01  8.50000000E-01  8.50000000E-01
  7.90000000E-01  7.20000000E-01  7.20000000E-01  8.50000000E-01  8.50000000E-01
  8.50000000E-01  7.90000000E-01  7.20000000E-01  7.20000000E-01  8.50000000E-01
  8.50000000E-01  8.50000000E-01  7.90000000E-01  7.20000000E-01  7.20000000E-01
  8.50000000E-01  8.50000000E-01  8.50000000E-01  7.90000000E-01  7.20000000E-01
  7.20000000E-01  8.50000000E-01  8.50000000E-01  8.50000000E-01  7.90000000E-01
  7.20000000E-01  7.20000000E-01  8.50000000E-01  8.50000000E-01  8.50000000E-01
  7.90000000E-01  7.20000000E-01  7.20000000E-01  8.50000000E-01  8.50000000E-01
  8.50000000E-01  7.90000000E-01  7.20000000E-01  7.20000000E-01  8.50000000E-01
  8.50000000E-01  8.50000000E-01  7.90000000E-01  7.20000000E-01  7.20000000E-01
  8.50000000E-01  8.50000000E-01  8.50000000E-01  7.90000000E-01  7.20000000E-01
  7.20000000E-01  8.50000000E-01  8.50000000E-01  8.50000000E-01  7.90000000E-01
  7.20000000E-01  7.20000000E-01  8.50000000E-01  8.50000000E-01  8.50000000E-01
  7.90000000E-01  7.20000000E-01  7.20000000E-01  8.50000000E-01  8.50000000E-01
  8.50000000E-01  7.90000000E-01  7.20000000E-01  7.20000000E-01  8.50000000E-01
  8.50000000E-01  8.50000000E-01  7.90000000E-01  7.20000000E-01  7.20000000E-01
  8.50000000E-01  8.50000000E-01  8.50000000E-01  7.90000000E-01  7.20000000E-01
  7.20000000E-01  8.50000000E-01  8.50000000E-01  8.50000000E-01  7.90000000E-01
  7.20000000E-01  7.20000000E-01  8.50000000E-01  8.50000000E-01  8.50000000E-01
  7.90000000E-01  7.20000000E-01  7.20000000E-01  8.50000000E-01  8.50000000E-01
  8.50000000E-01  7.90000000E-01  7.20000000E-01  7.20000000E-01  8.50000000E-01
  8.50000000E-01  8.50000000E-01  7.90000000E-01  7.20000000E-01  7.20000000E-01
  8.50000000E-01  8.50000000E-01  8.50000000E-01  7.90000000E-01  7.20000000E-01
  7.20000000E-01  8.50000000E-01  8.50000000E-01  8.50000000E-01  7.90000000E-01
  7.20000000E-01  7.20000000E-01  8.50000000E-01  8.50000000E-01  8.50000000E-01
  7.90000000E-01  7.20000000E-01  7.20000000E-01  8.50000000E-01  8.50000000E-01
  8.50000000E-01  7.90000000E-01  7.20000000E-01  7.20000000E-01  8.50000000E-01
  8.50000000E-01  8.50000000E-01  7.90000000E-01  7.20000000E-01  7.20000000E-01
  8.50000000E-01  8.50000000E-01  8.50000000E-01  7.90000000E-01  7.20000000E-01
  7.20000000E-01  8.50000000E-01  8.50000000E-01  8.50000000E-01  7.90000000E-01
  7.20000000E-01  7.20000000E-01  8.50000000E-01  8.50000000E-01  8.50000000E-01
  7.90000000E-01  7.20000000E-01  7.20000000E-01  8.50000000E-01  8.50000000E-01
  8.50000000E-01  7.90000000E-01  7.20000000E-01  7.20000000E-01  8.50000000E-01
  8.50000000E-01  8.50000000E-01  7.90000000E-01  7.20000000E-01  7.20000000E-01
  8.50000000E-01  8.50000000E-01  8.50000000E-01  7.90000000E-01  7.20000000E-01
  7.20000000E-01  8.50000000E-01  8.50000000E-01  8.50000000E-01  7.90000000E-01
  7.20000000E-01  7.20000000E-01  8.50000000E-01  8.50000000E-01  8.50000000E-01
  7.90000000E-01  7.20000000E-01  7.20000000E-01  8.50000000E-01  8.50000000E-01
  8.50000000E-01  7.90000000E-01  7.20000000E-01  7.20000000E-01  8.50000000E-01
  8.50000000E-01  8.50000000E-01  7.90000000E-01  7.20000000E-01  7.20000000E-01
  8.50000000E-01  8.50000000E-01  8.50000000E-01  7.90000000E-01  7.20000000E-01
  7.20000000E-01  8.50000000E-01  8.50000000E-01  8.50000000E-01  7.90000000E-01
  7.20000000E-01  7.20000000E-01  8.50000000E-01  8.50000000E-01  8.50000000E-01
  7.90000000E-01  7.20000000E-01  7.20000000E-01  8.50000000E-01  8.50000000E-01
  8.50000000E-01  7.90000000E-01  7.20000000E-01  7.20000000E-01  8.50000000E-01
  8.50000000E-01  8.50000000E-01  7.90000000E-01  7.20000000E-01  7.20000000E-01
  8.50000000E-01  8.50000000E-01  8.50000000E-01  7.90000000E-01  7.20000000E-01
  7.20000000E-01  8.50000000E-01  8.50000000E-01  8.50000000E-01  7.90000000E-01
  7.20000000E-01  7.20000000E-01  8.50000000E-01  8.50000000E-01  8.50000000E-01
  7.90000000E-01  7.20000000E-01  7.20000000E-01  8.50000000E-01  8.50000000E-01
  8.50000000E-01  7.90000000E-01  7.20000000E-01  7.20000000E-01  8.50000000E-01
  8.50000000E-01  8.50000000E-01  7.90000000E-01  7.20000000E-01  7.20000000E-01
  8.50000000E-01  8.50000000E-01  8.50000000E-01  7.90000000E-01  7.20000000E-01
  7.20000000E-01  8.50000000E-01  8.50000000E-01  8.50000000E-01  7.90000000E-01
  7.20000000E-01  7.20000000E-01  8.50000000E-01  8.50000000E-01  8.50000000E-01
  7.90000000E-01  7.20000000E-01  7.20000000E-01  8.50000000E-01  8.50000000E-01
  8.50000000E-01  7.90000000E-01  7.20000000E-01  7.20000000E-01  8.50000000E-01
  8.50000000E-01  8.50000000E-01  7.90000000E-01  7.20000000E-01  7.20000000E-01
  8.50000000E-01  8.50000000E-01  8.50000000E-01  7.90000000E-01  7.20000000E-01
  7.20000000E-01  8.50000000E-01  8.50000000E-01  8.50000000E-01  7.90000000E-01
  7.20000000E-01  7.20000000E-01  8.50000000E-01  8.50000000E-01  8.50000000E-01
  7.90000000E-01  7.20000000E-01  7.20000000E-01  8.50000000E-01  8.50000000E-01
  8.50000000E-01  7.90000000E-01  7.20000000E-01  7.20000000E-01  8.50000000E-01
  8.50000000E-01  8.50000000E-01  7.90000000E-01  7.20000000E-01  7.20000000E-01
  8.50000000E-01  8.50000000E-01  8.50000000E-01  7.90000000E-01  7.20000000E-01
  7.20000000E-01  8.50000000E-01  8.50000000E-01  8.50000000E-01  7.90000000E-01
  7.20000000E-01  7.20000000E-01  8.50000000E-01  8.50000000E-01  8.50000000E-01
  7.90000000E-01  7.20000000E-01  7.20000000E-01  8.50000000E-01  8.50000000E-01
  8.50000000E-01  7.90000000E-01  7.20000000E-01  7.20000000E-01  8.50000000E-01
  8.50000000E-01  8.50000000E-01  7.90000000E-01  7.20000000E-01  7.20000000E-01
  8.50000000E-01  8.50000000E-01  8.50000000E-01  7.90000000E-01  7.20000000E-01
  7.20000000E-01  8.50000000E-01  8.50000000E-01  8.50000000E-01  7.90000000E-01
  7.20000000E-01  7.20000000E-01  8.50000000E-01  8.50000000E-01  8.50000000E-01
  7.90000000E-01  7.20000000E-01  7.20000000E-01  8.50000000E-01  8.50000000E-01
  8.50000000E-01  7.90000000E-01  7.20000000E-01  7.20000000E-01  8.50000000E-01
  8.50000000E-01  8.50000000E-01  7.90000000E-01  7.20000000E-01  7.20000000E-01
  8.50000000E-01  8.50000000E-01  8.50000000E-01  7.90000000E-01  7.20000000E-01
  7.20000000E-01  8.50000000E-01  8.50000000E-01  8.50000000E-01  7.90000000E-01
  7.20000000E-01  7.20000000E-01  8.50000000E-01  8.50000000E-01  8.50000000E-01
  7.90000000E-01  7.20000000E-01  7.20000000E-01  8.50000000E-01  8.50000000E-01
  8.50000000E-01  7.90000000E-01  7.20000000E-01  7.20000000E-01  8.50000000E-01
  8.50000000E-01  8.50000000E-01  7.90000000E-01  7.20000000E-01  7.20000000E-01
  8.50000000E-01  8.50000000E-01  8.50000000E-01  7.90000000E-01  7.20000000E-01
  7.20000000E-01  8.50000000E-01  8.50000000E-01  8.50000000E-01  7.90000000E-01
  7.20000000E-01  7.20000000E-01  8.50000000E-01  8.50000000E-01  8.50000000E-01
  7.90000000E-01  7.20000000E-01  7.20000000E-01  8.50000000E-01  8.50000000E-01
  8.50000000E-01  7.90000000E-01  7.20000000E-01  7.20000000E-01  8.50000000E-01
  8.50000000E-01  8.50000000E-01  7.90000000E-01  7.20000000E-01  7.20000000E-01
  8.50000000E-01  8.50000000E-01  8.50000000E-01  7.90000000E-01  7.20000000E-01
  7.20000000E-01  8.50000000E-01  8.50000000E-01  8.50000000E-01  7.90000000E-01
  7.20000000E-01  7.20000000E-01  8.50000000E-01  8.50000000E-01  8.50000000E-01
  7.90000000E-01  7.20000000E-01  7.20000000E-01  8.50000000E-01  8.50000000E-01
  8.50000000E-01  7.90000000E-01  7.20000000E-01  7.20000000E-01  8.50000000E-01
  8.50000000E-01  8.50000000E-01  7.90000000E-01  7.20000000E-01  7.20000000E-01
  8.50000000E-01  8.50000000E-01  8.50000000E-01  7.90000000E-01  7.20000000E-01
  7.20000000E-01  8.50000000E-01  8.50000000E-01  8.50000000E-01  7.90000000E-01
  7.20000000E-01  7.20000000E-01  8.50000000E-01  8.50000000E-01  8.50000000E-01
  7.90000000E-01  7.20000000E-01  7.20000000E-01  8.50000000E-01  8.50000000E-01
  8.50000000E-01  7.90000000E-01  7.20000000E-01  7.20000000E-01  8.50000000E-01
  8.50000000E-01  8.50000000E-01  7.90000000E-01  7.20000000E-01  7.20000000E-01
  8.50000000E-01  8.50000000E-01  8.50000000E-01  7.90000000E-01  7.20000000E-01
  7.20000000E-01  8.50000000E-01  8.50000000E-01  8.50000000E-01  7.90000000E-01
  7.20000000E-01  7.20000000E-01  8.50000000E-01  8.50000000E-01  8.50000000E-01
  7.90000000E-01  7.20000000E-01  7.20000000E-01  8.50000000E-01  8.50000000E-01
  8.50000000E-01  7.90000000E-01  7.20000000E-01  7.20000000E-01  8.50000000E-01
  8.50000000E-01  8.50000000E-01  7.90000000E-01  7.20000000E-01  7.20000000E-01
  8.50000000E-01  8.50000000E-01  8.50000000E-01  7.90000000E-01  7.20000000E-01
  7.20000000E-01  8.50000000E-01  8.50000000E-01  8.50000000E-01  7.90000000E-01
  7.20000000E-01  7.20000000E-01  8.50000000E-01  8.50000000E-01  8.50000000E-01
  7.90000000E-01  7.20000000E-01  7.20000000E-01  8.50000000E-01  8.50000000E-01
  8.50000000E-01  7.90000000E-01  7.20000000E-01  7.20000000E-01  8.50000000E-01
  8.50000000E-01  8.50000000E-01  7.90000000E-01  7.20000000E-01  7.20000000E-01
  8.50000000E-01  8.50000000E-01  8.50000000E-01  7.90000000E-01  7.20000000E-01
  7.20000000E-01  8.50000000E-01  8.50000000E-01  8.50000000E-01  7.90000000E-01
  7.20000000E-01  7.20000000E-01  8.50000000E-01  8.50000000E-01  8.50000000E-01
  7.90000000E-01  7.20000000E-01  7.20000000E-01  8.50000000E-01  8.50000000E-01
  8.50000000E-01  7.90000000E-01  7.20000000E-01  7.20000000E-01  8.50000000E-01
  8.50000000E-01  8.50000000E-01  7.90000000E-01  7.20000000E-01  7.20000000E-01
  8.50000000E-01  8.50000000E-01  8.50000000E-01  7.90000000E-01  7.20000000E-01
  7.20000000E-01  8.50000000E-01  8.50000000E-01  8.50000000E-01  7.90000000E-01
  7.20000000E-01  7.20000000E-01  8.50000000E-01  8.50000000E-01  8.50000000E-01
  7.90000000E-01  7.20000000E-01  7.20000000E-01  8.50000000E-01  8.50000000E-01
  8.50000000E-01  7.90000000E-01  7.20000000E-01  7.20000000E-01  8.50000000E-01
  8.50000000E-01  8.50000000E-01  7.90000000E-01  7.20000000E-01  7.20000000E-01
  8.50000000E-01  8.50000000E-01  8.50000000E-01  7.90000000E-01  7.20000000E-01
  7.20000000E-01  8.50000000E-01  8.50000000E-01  8.50000000E-01  7.90000000E-01
  7.20000000E-01  7.20000000E-01  8.50000000E-01  8.50000000E-01  8.50000000E-01
  7.90000000E-01  7.20000000E-01  7.20000000E-01  8.50000000E-01  8.50000000E-01
  8.50000000E-01  7.90000000E-01  7.20000000E-01  7.20000000E-01  8.50000000E-01
  8.50000000E-01  8.50000000E-01  7.90000000E-01  7.20000000E-01  7.20000000E-01
  8.50000000E-01  8.50000000E-01  8.50000000E-01  7.90000000E-01  7.20000000E-01
  7.20000000E-01  8.50000000E-01  8.50000000E-01  8.50000000E-01  7.90000000E-01
  7.20000000E-01  7.20000000E-01  8.50000000E-01  8.50000000E-01  8.50000000E-01
  7.90000000E-01  7.20000000E-01  7.20000000E-01  8.50000000E-01  8.50000000E-01
  8.50000000E-01  7.90000000E-01  7.20000000E-01  7.20000000E-01  8.50000000E-01
  8.50000000E-01  8.50000000E-01  7.90000000E-01  7.20000000E-01  7.20000000E-01
  8.50000000E-01  8.50000000E-01  8.50000000E-01  7.90000000E-01  7.20000000E-01
  7.20000000E-01  8.50000000E-01  8.50000000E-01  8.50000000E-01  7.90000000E-01
  7.20000000E-01  7.20000000E-01  8.50000000E-01  8.50000000E-01  8.50000000E-01
  7.90000000E-01  7.20000000E-01  7.20000000E-01  8.50000000E-01  8.50000000E-01
  8.50000000E-01  7.90000000E-01  7.20000000E-01  7.20000000E-01  8.50000000E-01
  8.50000000E-01  8.50000000E-01  7.90000000E-01  7.20000000E-01  7.20000000E-01
  8.50000000E-01  8.50000000E-01  8.50000000E-01  7.90000000E-01  7.20000000E-01
  7.20000000E-01  8.50000000E-01  8.50000000E-01  8.50000000E-01  7.90000000E-01
  7.20000000E-01  7.20000000E-01  8.50000000E-01  8.50000000E-01  8.50000000E-01
  7.90000000E-01  7.20000000E-01  7.20000000E-01  8.50000000E-01  8.50000000E-01
  8.50000000E-01  7.90000000E-01  7.20000000E-01  7.20000000E-01  8.50000000E-01
  8.50000000E-01  8.50000000E-01  7.90000000E-01  7.20000000E-01  7.20000000E-01
  8.50000000E-01  8.50000000E-01  8.50000000E-01  7.90000000E-01  7.20000000E-01
  7.20000000E-01  8.50000000E-01  8.50000000E-01  8.50000000E-01  7.90000000E-01
  7.20000000E-01  7.20000000E-01  8.50000000E-01  8.50000000E-01  8.50000000E-01
  7.90000000E-01  7.20000000E-01  7.20000000E-01  8.50000000E-01  8.50000000E-01
  8.50000000E-01  7.90000000E-01  7.20000000E-01  7.20000000E-01  8.50000000E-01
  8.50000000E-01  8.50000000E-01  7.90000000E-01  7.20000000E-01  7.20000000E-01
  8.50000000E-01  8.50000000E-01  8.50000000E-01  7.90000000E-01  7.20000000E-01
  7.20000000E-01  8.50000000E-01  8.50000000E-01  8.50000000E-01  7.90000000E-01
  7.20000000E-01  7.20000000E-01  8.50000000E-01  8.50000000E-01  8.50000000E-01
  7.90000000E-01  7.20000000E-01  7.20000000E-01  8.50000000E-01  8.50000000E-01
  8.50000000E-01  7.90000000E-01  7.20000000E-01  7.20000000E-01  8.50000000E-01
  8.50000000E-01  8.50000000E-01  7.90000000E-01  7.20000000E-01  7.20000000E-01
  8.50000000E-01  8.50000000E-01  8.50000000E-01  7.90000000E-01  7.20000000E-01
  7.20000000E-01  8.50000000E-01  8.50000000E-01  8.50000000E-01  7.90000000E-01
  7.20000000E-01  7.20000000E-01  8.50000000E-01  8.50000000E-01  8.50000000E-01
  7.90000000E-01  7.20000000E-01  7.20000000E-01  8.50000000E-01  8.50000000E-01
  8.50000000E-01  7.90000000E-01  7.20000000E-01  7.20000000E-01  8.50000000E-01
  8.50000000E-01  8.50000000E-01  7.90000000E-01  7.20000000E-01  7.20000000E-01
  8.50000000E-01  8.50000000E-01  8.50000000E-01  7.90000000E-01  7.20000000E-01
  7.20000000E-01  8.50000000E-01  8.50000000E-01  8.50000000E-01  7.90000000E-01
  7.20000000E-01  7.20000000E-01  8.50000000E-01  8.50000000E-01  8.50000000E-01
  7.90000000E-01  7.20000000E-01  7.20000000E-01  8.50000000E-01  8.50000000E-01
  8.50000000E-01  7.90000000E-01  7.20000000E-01  7.20000000E-01  8.50000000E-01
  8.50000000E-01  8.50000000E-01  7.90000000E-01  7.20000000E-01  7.20000000E-01
  8.50000000E-01  8.50000000E-01  8.50000000E-01  7.90000000E-01  7.20000000E-01
  7.20000000E-01  8.50000000E-01  8.50000000E-01  8.50000000E-01  7.90000000E-01
  7.20000000E-01  7.20000000E-01  8.50000000E-01  8.50000000E-01  8.50000000E-01
  7.90000000E-01  7.20000000E-01  7.20000000E-01  8.50000000E-01  8.50000000E-01
  8.50000000E-01  7.90000000E-01  7.20000000E-01  7.20000000E-01  8.50000000E-01
  8.50000000E-01  8.50000000E-01  7.90000000E-01  7.20000000E-01  7.20000000E-01
  8.50000000E-01  8.50000000E-01  8.50000000E-01  7.90000000E-01  7.20000000E-01
  7.20000000E-01  8.50000000E-01  8.50000000E-01  8.50000000E-01  7.90000000E-01
  7.20000000E-01  7.20000000E-01  8.50000000E-01  8.50000000E-01  8.50000000E-01
  7.90000000E-01  7.20000000E-01  7.20000000E-01  8.50000000E-01  8.50000000E-01
  8.50000000E-01  7.90000000E-01  7.20000000E-01  7.20000000E-01  8.50000000E-01
  8.50000000E-01  8.50000000E-01  7.90000000E-01  7.20000000E-01  7.20000000E-01
  8.50000000E-01  8.50000000E-01  8.50000000E-01  7.90000000E-01  7.20000000E-01
  7.20000000E-01  8.50000000E-01  8.50000000E-01  8.50000000E-01  7.90000000E-01
  7.20000000E-01  7.20000000E-01  8.50000000E-01  8.50000000E-01  8.50000000E-01
  7.90000000E-01  7.20000000E-01  7.20000000E-01  8.50000000E-01  8.50000000E-01
  8.50000000E-01  7.90000000E-01  7.20000000E-01  7.20000000E-01  8.50000000E-01
  8.50000000E-01  8.50000000E-01  7.90000000E-01  7.20000000E-01  7.20000000E-01
  8.50000000E-01  8.50000000E-01  8.50000000E-01  7.90000000E-01  7.20000000E-01
  7.20000000E-01  8.50000000E-01  8.50000000E-01  8.50000000E-01  7.90000000E-01
  7.20000000E-01  7.20000000E-01  8.50000000E-01  8.50000000E-01  8.50000000E-01
  7.90000000E-01  7.20000000E-01  7.20000000E-01  8.50000000E-01  8.50000000E-01
  8.50000000E-01  7.90000000E-01  7.20000000E-01  7.20000000E-01  8.50000000E-01
  8.50000000E-01  8.50000000E-01  7.90000000E-01  7.20000000E-01  7.20000000E-01
  8.50000000E-01  8.50000000E-01  8.50000000E-01  7.90000000E-01  7.20000000E-01
  7.20000000E-01  8.50000000E-01  8.50000000E-01  8.50000000E-01  7.90000000E-01
  7.20000000E-01  7.20000000E-01  8.50000000E-01  8.50000000E-01  8.50000000E-01
  7.90000000E-01  7.20000000E-01  7.20000000E-01  8.50000000E-01  8.50000000E-01
  8.50000000E-01  7.90000000E-01  7.20000000E-01  7.20000000E-01  8.50000000E-01
  8.50000000E-01  8.50000000E-01  7.90000000E-01  7.20000000E-01  7.20000000E-01
  8.50000000E-01  8.50000000E-01  8.50000000E-01  7.90000000E-01  7.20000000E-01
  7.20000000E-01  8.50000000E-01  8.50000000E-01  8.50000000E-01  7.90000000E-01
  7.20000000E-01  7.20000000E-01  8.50000000E-01  8.50000000E-01  8.50000000E-01
  7.90000000E-01  7.20000000E-01  7.20000000E-01  8.50000000E-01  8.50000000E-01
  8.50000000E-01  7.90000000E-01  7.20000000E-01  7.20000000E-01  8.50000000E-01
  8.50000000E-01  8.50000000E-01  7.90000000E-01  7.20000000E-01  7.20000000E-01
  8.50000000E-01  8.50000000E-01  8.50000000E-01  7.90000000E-01  7.20000000E-01
  7.20000000E-01  8.50000000E-01  8.50000000E-01  8.50000000E-01  7.90000000E-01
  7.20000000E-01  7.20000000E-01  8.50000000E-01  8.50000000E-01  8.50000000E-01
  7.90000000E-01  7.20000000E-01  7.20000000E-01  8.50000000E-01  8.50000000E-01
  8.50000000E-01  7.90000000E-01  7.20000000E-01  7.20000000E-01  8.50000000E-01
  8.50000000E-01  8.50000000E-01  7.90000000E-01  7.20000000E-01  7.20000000E-01
  8.50000000E-01  8.50000000E-01  8.50000000E-01  7.90000000E-01  7.20000000E-01
  7.20000000E-01  8.50000000E-01  8.50000000E-01  8.50000000E-01  7.90000000E-01
  7.20000000E-01  7.20000000E-01  8.50000000E-01  8.50000000E-01  8.50000000E-01
  7.90000000E-01  7.20000000E-01  7.20000000E-01  8.50000000E-01  8.50000000E-01
  8.50000000E-01  7.90000000E-01  7.20000000E-01  7.20000000E-01  8.50000000E-01
  8.50000000E-01  8.50000000E-01  7.90000000E-01  7.20000000E-01  7.20000000E-01
  8.50000000E-01  8.50000000E-01  8.50000000E-01  7.90000000E-01  7.20000000E-01
  7.20000000E-01  8.50000000E-01  8.50000000E-01  8.50000000E-01  7.90000000E-01
  7.20000000E-01  7.20000000E-01  8.50000000E-01  8.50000000E-01  8.50000000E-01
  7.90000000E-01  7.20000000E-01  7.20000000E-01  8.50000000E-01  8.50000000E-01
  8.50000000E-01  7.90000000E-01  7.20000000E-01  7.20000000E-01  8.50000000E-01
  8.50000000E-01  8.50000000E-01  7.90000000E-01  7.20000000E-01  7.20000000E-01
  8.50000000E-01  8.50000000E-01  8.50000000E-01  7.90000000E-01  7.20000000E-01
  7.20000000E-01  8.50000000E-01  8.50000000E-01  8.50000000E-01  7.90000000E-01
  7.20000000E-01  7.20000000E-01  8.50000000E-01  8.50000000E-01  8.50000000E-01
  7.90000000E-01  7.20000000E-01  7.20000000E-01  8.50000000E-01  8.50000000E-01
  8.50000000E-01  7.90000000E-01  7.20000000E-01  7.20000000E-01  8.50000000E-01
  8.50000000E-01  8.50000000E-01  7.90000000E-01  7.20000000E-01  7.20000000E-01
  8.50000000E-01  8.50000000E-01  8.50000000E-01  7.90000000E-01  7.20000000E-01
  7.20000000E-01  8.50000000E-01  8.50000000E-01  8.50000000E-01  7.90000000E-01
  7.20000000E-01  7.20000000E-01  8.50000000E-01  8.50000000E-01  8.50000000E-01
  7.90000000E-01  7.20000000E-01  7.20000000E-01  8.50000000E-01  8.50000000E-01
  8.50000000E-01  7.90000000E-01  7.20000000E-01  7.20000000E-01  8.50000000E-01
  8.50000000E-01  8.50000000E-01  7.90000000E-01  7.20000000E-01  7.20000000E-01
  8.50000000E-01  8.50000000E-01  8.50000000E-01  7.90000000E-01  7.20000000E-01
  7.20000000E-01  8.50000000E-01  8.50000000E-01  8.50000000E-01  7.90000000E-01
  7.20000000E-01  7.20000000E-01  8.50000000E-01  8.50000000E-01  8.50000000E-01
  7.90000000E-01  7.20000000E-01  7.20000000E-01  8.50000000E-01  8.50000000E-01
  8.50000000E-01  7.90000000E-01  7.20000000E-01  7.20000000E-01  8.50000000E-01
  8.50000000E-01  8.50000000E-01  7.90000000E-01  7.20000000E-01  7.20000000E-01
  8.50000000E-01  8.50000000E-01  8.50000000E-01  7.90000000E-01  7.20000000E-01
  7.20000000E-01  8.50000000E-01  8.50000000E-01  8.50000000E-01  7.90000000E-01
  7.20000000E-01  7.20000000E-01  8.50000000E-01  8.50000000E-01  8.50000000E-01
  7.90000000E-01  7.20000000E-01  7.20000000E-01  8.50000000E-01  8.50000000E-01
  8.50000000E-01  7.90000000E-01  7.20000000E-01  7.20000000E-01  8.50000000E-01
  8.50000000E-01  8.50000000E-01  7.90000000E-01  7.20000000E-01  7.20000000E-01
  8.50000000E-01  8.50000000E-01  8.50000000E-01  7.90000000E-01  7.20000000E-01
  7.20000000E-01  8.50000000E-01  8.50000000E-01  8.50000000E-01  7.90000000E-01
  7.20000000E-01  7.20000000E-01  8.50000000E-01  8.50000000E-01  8.50000000E-01
  7.90000000E-01  7.20000000E-01  7.20000000E-01  8.50000000E-01  8.50000000E-01
  8.50000000E-01  7.90000000E-01  7.20000000E-01  7.20000000E-01  8.50000000E-01
  8.50000000E-01  8.50000000E-01  7.90000000E-01  7.20000000E-01  7.20000000E-01
  8.50000000E-01  8.50000000E-01  8.50000000E-01  7.90000000E-01  7.20000000E-01
  7.20000000E-01  8.50000000E-01  8.50000000E-01  8.50000000E-01  7.90000000E-01
  7.20000000E-01  7.20000000E-01  8.50000000E-01  8.50000000E-01  8.50000000E-01
  7.90000000E-01  7.20000000E-01  7.20000000E-01  8.50000000E-01  8.50000000E-01
  8.50000000E-01  7.90000000E-01  7.20000000E-01  7.20000000E-01  8.50000000E-01
  8.50000000E-01  8.50000000E-01  7.90000000E-01  7.20000000E-01  7.20000000E-01
  8.50000000E-01  8.50000000E-01  8.50000000E-01  7.90000000E-01  7.20000000E-01
  7.20000000E-01  8.50000000E-01  8.50000000E-01  8.50000000E-01  7.90000000E-01
  7.20000000E-01  7.20000000E-01  8.50000000E-01  8.50000000E-01  8.50000000E-01
  7.90000000E-01  7.20000000E-01  7.20000000E-01  8.50000000E-01  8.50000000E-01
  8.50000000E-01  7.90000000E-01  7.20000000E-01  7.20000000E-01  8.50000000E-01
  8.50000000E-01  8.50000000E-01  7.90000000E-01  7.20000000E-01  7.20000000E-01
  8.50000000E-01  8.50000000E-01  8.50000000E-01  7.90000000E-01  7.20000000E-01
  7.20000000E-01  8.50000000E-01  8.50000000E-01  8.50000000E-01  7.90000000E-01
  7.20000000E-01  7.20000000E-01  8.50000000E-01  8.50000000E-01  8.50000000E-01
  7.90000000E-01  7.20000000E-01  7.20000000E-01  8.50000000E-01  8.50000000E-01
  8.50000000E-01  7.90000000E-01  7.20000000E-01  7.20000000E-01  8.50000000E-01
  8.50000000E-01  8.50000000E-01  7.90000000E-01  7.20000000E-01  7.20000000E-01
  8.50000000E-01  8.50000000E-01  8.50000000E-01  7.90000000E-01  7.20000000E-01
  7.20000000E-01  8.50000000E-01  8.50000000E-01  8.50000000E-01  7.90000000E-01
  7.20000000E-01  7.20000000E-01  8.50000000E-01  8.50000000E-01  8.50000000E-01
  7.90000000E-01  7.20000000E-01  7.20000000E-01  8.50000000E-01  8.50000000E-01
  8.50000000E-01  7.90000000E-01  7.20000000E-01  7.20000000E-01  8.50000000E-01
  8.50000000E-01  8.50000000E-01  7.90000000E-01  7.20000000E-01  7.20000000E-01
  8.50000000E-01  8.50000000E-01  8.50000000E-01  7.90000000E-01  7.20000000E-01
  7.20000000E-01  8.50000000E-01  8.50000000E-01  8.50000000E-01  7.90000000E-01
  7.20000000E-01  7.20000000E-01  8.50000000E-01  8.50000000E-01  8.50000000E-01
  7.90000000E-01  7.20000000E-01  7.20000000E-01  8.50000000E-01  8.50000000E-01
  8.50000000E-01  7.90000000E-01  7.20000000E-01  7.20000000E-01  8.50000000E-01
  8.50000000E-01  8.50000000E-01  7.90000000E-01  7.20000000E-01  7.20000000E-01
  8.50000000E-01  8.50000000E-01  8.50000000E-01  7.90000000E-01  7.20000000E-01
  7.20000000E-01  8.50000000E-01  8.50000000E-01  8.50000000E-01  7.90000000E-01
  7.20000000E-01  7.20000000E-01  8.50000000E-01  8.50000000E-01  8.50000000E-01
  7.90000000E-01  7.20000000E-01  7.20000000E-01  8.50000000E-01  8.50000000E-01
  8.50000000E-01  7.90000000E-01  7.20000000E-01  7.20000000E-01  8.50000000E-01
  8.50000000E-01  8.50000000E-01  7.90000000E-01  7.20000000E-01  7.20000000E-01
  8.50000000E-01  8.50000000E-01  8.50000000E-01  7.90000000E-01  7.20000000E-01
  7.20000000E-01  8.50000000E-01  8.50000000E-01  8.50000000E-01  7.90000000E-01
  7.20000000E-01  7.20000000E-01  8.50000000E-01  8.50000000E-01  8.50000000E-01
  7.90000000E-01  7.20000000E-01  7.20000000E-01  8.50000000E-01  8.50000000E-01
  8.50000000E-01  7.90000000E-01  7.20000000E-01  7.20000000E-01  8.50000000E-01
  8.50000000E-01  8.50000000E-01  7.90000000E-01  7.20000000E-01  7.20000000E-01
  8.50000000E-01  8.50000000E-01  8.50000000E-01  7.90000000E-01  7.20000000E-01
  7.20000000E-01  8.50000000E-01  8.50000000E-01  8.50000000E-01  7.90000000E-01
  7.20000000E-01  7.20000000E-01  8.50000000E-01  8.50000000E-01  8.50000000E-01
  7.90000000E-01  7.20000000E-01  7.20000000E-01  8.50000000E-01  8.50000000E-01
  8.50000000E-01  7.90000000E-01  7.20000000E-01  7.20000000E-01  8.50000000E-01
  8.50000000E-01  8.50000000E-01  7.90000000E-01  7.20000000E-01  7.20000000E-01
  8.50000000E-01  8.50000000E-01  8.50000000E-01  7.90000000E-01  7.20000000E-01
  7.20000000E-01  8.50000000E-01  8.50000000E-01  8.50000000E-01  7.90000000E-01
  7.20000000E-01  7.20000000E-01  8.50000000E-01  8.50000000E-01  8.50000000E-01
  7.90000000E-01  7.20000000E-01  7.20000000E-01  8.50000000E-01  8.50000000E-01
  8.50000000E-01  7.90000000E-01  7.20000000E-01  7.20000000E-01  8.50000000E-01
  8.50000000E-01  8.50000000E-01  7.90000000E-01  7.20000000E-01  7.20000000E-01
  8.50000000E-01  8.50000000E-01  8.50000000E-01  7.90000000E-01  7.20000000E-01
  7.20000000E-01  8.50000000E-01  8.50000000E-01  8.50000000E-01  7.90000000E-01
  7.20000000E-01  7.20000000E-01  8.50000000E-01  8.50000000E-01  8.50000000E-01
  7.90000000E-01  7.20000000E-01  7.20000000E-01  8.50000000E-01  8.50000000E-01
  8.50000000E-01  7.90000000E-01  7.20000000E-01  7.20000000E-01  8.50000000E-01
  8.50000000E-01  8.50000000E-01  7.90000000E-01  7.20000000E-01  7.20000000E-01
  8.50000000E-01  8.50000000E-01  8.50000000E-01  7.90000000E-01  7.20000000E-01
  7.20000000E-01  8.50000000E-01  8.50000000E-01  8.50000000E-01  7.90000000E-01
  7.20000000E-01  7.20000000E-01  8.50000000E-01  8.50000000E-01  8.50000000E-01
  7.90000000E-01  7.20000000E-01  7.20000000E-01  8.50000000E-01  8.50000000E-01
  8.50000000E-01  7.90000000E-01  7.20000000E-01  7.20000000E-01  8.50000000E-01
  8.50000000E-01  8.50000000E-01  7.90000000E-01  7.20000000E-01  7.20000000E-01
  8.50000000E-01  8.50000000E-01  8.50000000E-01  7.90000000E-01  7.20000000E-01
  7.20000000E-01  8.50000000E-01  8.50000000E-01  8.50000000E-01  7.90000000E-01
  7.20000000E-01  7.20000000E-01  8.50000000E-01  8.50000000E-01  8.50000000E-01
  7.90000000E-01  7.20000000E-01  7.20000000E-01  8.50000000E-01  8.50000000E-01
  8.50000000E-01  7.90000000E-01  7.20000000E-01  7.20000000E-01  8.50000000E-01
  8.50000000E-01  8.50000000E-01  7.90000000E-01  7.20000000E-01  7.20000000E-01
  8.50000000E-01  8.50000000E-01  8.50000000E-01  7.90000000E-01  7.20000000E-01
  7.20000000E-01  8.50000000E-01  8.50000000E-01  8.50000000E-01  7.90000000E-01
  7.20000000E-01  7.20000000E-01  8.50000000E-01  8.50000000E-01  8.50000000E-01
  7.90000000E-01  7.20000000E-01  7.20000000E-01  8.50000000E-01  8.50000000E-01
  8.50000000E-01  7.90000000E-01  7.20000000E-01  7.20000000E-01  8.50000000E-01
  8.50000000E-01  8.50000000E-01  7.90000000E-01  7.20000000E-01  7.20000000E-01
  8.50000000E-01  8.50000000E-01  8.50000000E-01  7.90000000E-01  7.20000000E-01
  7.20000000E-01  8.50000000E-01  8.50000000E-01  8.50000000E-01  7.90000000E-01
  7.20000000E-01  7.20000000E-01  8.50000000E-01  8.50000000E-01  8.50000000E-01
  7.90000000E-01  7.20000000E-01  7.20000000E-01  8.50000000E-01  8.50000000E-01
  8.50000000E-01  7.90000000E-01  7.20000000E-01  7.20000000E-01  8.50000000E-01
  8.50000000E-01  8.50000000E-01  7.90000000E-01  7.20000000E-01  7.20000000E-01
  8.50000000E-01  8.50000000E-01  8.50000000E-01  7.90000000E-01  7.20000000E-01
  7.20000000E-01  8.50000000E-01  8.50000000E-01  8.50000000E-01  7.90000000E-01
  7.20000000E-01  7.20000000E-01  8.50000000E-01  8.50000000E-01  8.50000000E-01
  7.90000000E-01  7.20000000E-01  7.20000000E-01  8.50000000E-01  8.50000000E-01
  8.50000000E-01  7.90000000E-01  7.20000000E-01  7.20000000E-01  8.50000000E-01
  8.50000000E-01  8.50000000E-01  7.90000000E-01  7.20000000E-01  7.20000000E-01
  8.50000000E-01  8.50000000E-01  8.50000000E-01  7.90000000E-01  7.20000000E-01
  7.20000000E-01  8.50000000E-01  8.50000000E-01  8.50000000E-01  7.90000000E-01
  7.20000000E-01  7.20000000E-01  8.50000000E-01  8.50000000E-01  8.50000000E-01
%FLAG IPOL                                                                      
%FORMAT(1I8)                                                                    
       0
