default_name
  2080
  40.4590000  37.1000000  34.8040000  29.1410000  37.1000000  34.7990000
  40.4590000  32.5000000  34.7970000  29.1410000  32.5000000  34.8040000
  40.4600000  34.8000000  34.8010000  29.1400000  34.8000000  34.8020000
  36.2280000  34.8000000  34.7990000  33.3720000  34.8000000  34.7990000
  35.5170000  36.0300000  34.7990000  34.0830000  36.0300000  34.7990000
  35.5170000  33.5700000  34.7990000  34.0830000  33.5700000  34.8000000
  37.6630000  34.8000000  34.8000000  31.9370000  34.8000000  34.7990000
  38.3600000  36.0150000  34.8010000  31.2400000  36.0150000  34.7990000
  38.3600000  33.5850000  34.7990000  31.2400000  33.5850000  34.8000000
  36.2830000  37.2200000  34.8000000  33.3170000  37.2200000  34.7980000
  36.2840000  32.3800000  34.7990000  33.3170000  32.3800000  34.8010000
  37.6750000  37.2210000  34.8010000  31.9250000  37.2210000  34.7980000
  37.6750000  32.3790000  34.7990000  31.9250000  32.3790000  34.8010000
  39.8400000  36.0400000  34.8020000  29.7600000  36.0400000  34.7990000
  39.8400000  33.5600000  34.7990000  29.7600000  33.5600000  34.8020000
  35.8130000  38.2000000  34.8010000  33.7870000  38.2000000  34.7970000
  35.8130000  31.4000000  34.7980000  33.7870000  31.4000000  34.8010000
  38.1960000  38.1740000  34.8020000  31.4040000  38.1740000  34.7970000
  38.1960000  31.4260000  34.7980000  31.4040000  31.4260000  34.8020000
  41.4760000  34.8000000  34.8020000  28.1240000  34.8000000  34.8020000
  51.3120000  46.4510000  38.9170000  48.8400000  46.7390000  39.7410000
  50.2180000  46.5790000  39.2810000  48.7130000  47.6900000  40.2670000
  48.5620000  45.9320000  40.4260000  48.1440000  46.7230000  38.8970000
  19.7650000  23.6460000  24.3560000  18.9140000  24.7860000  26.5580000
  19.3880000  24.1510000  25.3300000  19.7430000  25.2420000  27.1060000
  18.4350000  24.0530000  27.2150000  18.1830000  25.5690000  26.3340000
  34.7360000  36.8370000  29.3640000  32.1470000  36.4240000  29.3530000
  33.5910000  36.6540000  29.3590000  31.9160000  35.3910000  29.6320000
  31.7270000  36.6090000  28.3600000  31.6440000  37.0870000  30.0630000
  35.3300000  17.7570000  42.7830000  37.3630000  19.2580000  42.0850000
  36.2290000  18.4210000  42.4740000  38.0120000  18.7300000  41.3800000
  37.9620000  19.5320000  42.9580000  37.0200000  20.1790000  41.6050000
  46.1690000  49.8410000  44.5890000  44.0190000  50.5270000  45.9230000
  45.2180000  50.1440000  45.1790000  43.5380000  49.6490000  46.3640000
  43.2940000  51.0180000  45.2670000  44.2680000  51.2190000  46.7320000
  44.5200000  27.9470000  49.8290000  45.7650000  26.9620000  47.7430000
  45.0700000  27.5110000  48.9060000  45.0500000  26.5750000  47.0100000
  46.4270000  26.1420000  48.0370000  46.3710000  27.7290000  47.2530000
  31.8420000  40.4540000  46.7300000  31.9510000  42.6890000  45.3640000
  31.8900000  41.4420000  46.1260000  32.8250000  42.7000000  44.7060000
  32.0190000  43.5510000  46.0340000  31.0580000  42.8100000  44.7440000
  23.8770000  50.3290000  31.0930000  25.5700000  48.7650000  32.3420000
  24.6260000  49.6370000  31.6460000  25.1680000  47.7510000  32.4340000
  25.7770000  49.1410000  33.3490000  26.5180000  48.7060000  31.8000000
  33.1590000  19.9330000  41.1360000  34.4050000  20.6880000  43.3160000
  33.7100000  20.2670000  42.1000000  35.4580000  20.3930000  43.2840000
  33.9510000  20.2330000  44.2010000  34.3610000  21.7750000  43.4330000
  37.7860000  19.9000000  31.8260000  36.5070000  18.3590000  33.5190000
  37.2200000  19.2180000  32.5750000  35.8980000  18.9550000  34.2040000
  37.2100000  17.7680000  34.1150000  35.8450000  17.6660000  32.9910000
  43.4420000  29.8630000  49.8890000  45.2770000  30.6540000  48.1910000
  44.2540000  30.2130000  49.1380000  45.7200000  31.6020000  48.5110000
  44.8490000  30.7980000  47.1940000  46.0790000  29.9140000  48.1130000
  30.8760000  20.5540000  48.1610000  30.5390000  17.9830000  48.5540000
  30.7270000  19.4160000  48.3350000  31.1160000  17.4000000  47.8300000
  29.4850000  17.7090000  48.4480000  30.8650000  17.6970000  49.5580000
  40.5300000  42.3480000  45.6080000  39.0390000  40.8150000  44.0910000
  39.8710000  41.6700000  44.9370000  38.2420000  41.3950000  43.6160000
  38.5740000  40.0180000  44.6810000  39.6360000  40.3480000  43.3030000
  35.1280000  21.4850000  45.8950000  34.0860000  23.8440000  46.3660000
  34.6670000  22.5280000  46.1040000  33.8040000  23.9420000  47.4180000
  33.1900000  24.0020000  45.7570000  34.8000000  24.6390000  46.1310000
  25.8510000  42.5730000  43.0500000  25.6050000  45.1830000  43.0680000
  25.7420000  43.7280000  43.0580000  26.3820000  45.6520000  42.4570000
  25.6930000  45.5750000  44.0870000  24.6320000  45.4850000  42.6710000
  26.9530000  44.1710000  35.9910000  28.6900000  43.7800000  37.9150000
  27.7210000  43.9980000  36.8420000  28.1890000  43.4480000  38.8300000
  29.2340000  44.7020000  38.1420000  29.4200000  43.0160000  37.6310000
  46.3790000  22.8340000  46.0840000  45.3020000  20.7020000  47.1660000
  45.9020000  21.8910000  46.5630000  46.0690000  19.9640000  47.4180000
  44.5920000  20.2330000  46.4780000  44.7650000  20.9600000  48.0840000
  30.2880000  22.5620000  39.9540000  28.6950000  24.6180000  39.6200000
  29.5840000  23.4720000  39.8060000  28.9950000  25.4510000  40.2630000
  27.6620000  24.3530000  39.8660000  28.7200000  24.9640000  38.5830000
  29.6880000  21.5000000  37.9660000  31.0060000  19.2350000  37.8890000
  30.2710000  20.4980000  37.9320000  31.9330000  19.3050000  38.4650000
  31.2640000  18.9700000  36.8590000  30.4060000  18.4220000  38.3080000
  39.7020000  50.0500000  24.7770000  40.0460000  48.1130000  23.0440000
  39.8540000  49.1930000  24.0100000  41.0540000  47.6950000  23.1230000
  39.9080000  48.4770000  22.0210000  39.3290000  47.3050000  23.2160000
  24.1600000  27.0990000  36.9610000  24.1940000  29.5440000  36.0150000
  24.1750000  28.1810000  36.5420000  24.0730000  30.2750000  36.8200000
  23.3830000  29.6940000  35.2950000  25.1400000  29.7520000  35.5070000
  22.1430000  38.8520000  31.8750000  20.7490000  41.0130000  31.3620000
  21.5260000  39.8080000  31.6480000  19.6780000  40.8240000  31.4870000
  20.9160000  41.3490000  30.3340000  21.0310000  41.8270000  32.0350000
  32.7940000  39.2060000  44.3530000  34.7320000  40.8390000  45.0230000
  33.6510000  39.9290000  44.6490000  35.6900000  40.3110000  45.0620000
  34.5470000  41.2800000  46.0080000  34.8220000  41.6540000  44.2990000
  23.8070000  26.0740000  50.7020000  26.2220000  27.0950000  50.7290000
  24.8750000  26.5260000  50.7140000  26.3290000  27.8180000  51.5420000
  26.4380000  27.6080000  49.7870000  26.9730000  26.3120000  50.8680000
  22.9960000  45.3720000  45.8000000  20.7880000  46.7570000  46.0870000
  22.0190000  45.9850000  45.9270000  20.5360000  47.2840000  45.1620000
  20.8960000  47.5010000  46.8830000  19.9500000  46.1040000  46.3450000
  27.8520000  50.1010000  23.6860000  28.5590000  47.7540000  24.6170000
  28.1650000  49.0620000  24.0980000  28.0870000  46.9500000  24.0440000
  28.2610000  47.6450000  25.6640000  29.6430000  47.6220000  24.5570000
  30.6080000  24.8510000  33.8150000  31.5350000  27.1860000  33.0650000
  31.0180000  25.8840000  33.4830000  32.4200000  27.0690000  32.4320000
  31.8160000  27.7900000  33.9340000  30.7820000  27.7390000  32.4970000
  29.9320000  36.2990000  47.3630000  27.3570000  36.7530000  47.1660000
  28.7930000  36.5000000  47.2760000  27.0680000  36.9040000  46.1220000
  27.0750000  37.6470000  47.7300000  26.7820000  35.9090000  47.5590000
  46.7910000  48.0370000  30.0630000  49.2460000  47.1220000  29.9550000
  47.8770000  47.6320000  30.0150000  49.8940000  47.6640000  30.6490000
  49.6590000  47.2330000  28.9470000  49.2770000  46.0610000  30.2190000
  47.9040000  34.8430000  30.1380000  50.0650000  34.8840000  31.6220000
  48.8600000  34.8610000  30.7940000  50.5310000  33.8940000  31.6580000
  49.8280000  35.1860000  32.6460000  50.7990000  35.5890000  31.2210000
  24.0890000  21.1460000  49.2960000  23.9380000  22.4350000  51.5740000
  24.0220000  21.7160000  50.3040000  24.8390000  22.2740000  52.1730000
  23.0770000  22.0950000  52.1570000  23.8310000  23.5110000  51.4060000
  39.6050000  26.8820000  22.8480000  41.1610000  27.3210000  20.7830000
  40.2930000  27.0760000  21.9350000  41.7640000  26.4380000  20.5560000
  41.8410000  28.1560000  20.9800000  40.5700000  27.5670000  19.8960000
  48.5790000  32.0510000  36.8300000  49.5420000  34.4570000  36.4360000
  49.0050000  33.1160000  36.6550000  50.0700000  34.5140000  35.4790000
  50.2460000  34.7290000  37.2290000  48.7400000  35.2010000  36.4250000
  23.1290000  42.4630000  39.2050000  20.7420000  42.8710000  38.2000000
  22.0730000  42.6430000  38.7600000  20.0030000  42.2190000  38.6740000
  20.7330000  42.6680000  37.1240000  20.4280000  43.9080000  38.3520000
  40.2760000  36.4120000  27.7040000  38.3080000  34.9320000  26.8040000
  39.4050000  35.7570000  27.3060000  37.3410000  35.3920000  27.0300000
  38.3270000  33.9390000  27.2630000  38.3790000  34.8060000  25.7200000
  27.0920000  31.1680000  45.8860000  26.5020000  33.3580000  44.5710000
  26.8310000  32.1370000  45.3040000  26.9560000  34.2320000  45.0470000
  25.4190000  33.5120000  44.5380000  26.8680000  33.3040000  43.5420000
  44.8460000  47.7390000  41.5300000  45.8790000  49.9520000  40.5760000
  45.3030000  48.7180000  41.1080000  46.4080000  49.7620000  39.6380000
  46.5900000  50.3870000  41.2860000  45.0980000  50.6930000  40.3820000
  17.4380000  37.9430000  27.5760000  18.2210000  39.5250000  29.5140000
  17.7840000  38.6430000  28.4330000  17.5320000  40.3660000  29.6320000
  19.2170000  39.9290000  29.3070000  18.2640000  38.9850000  30.4640000
  34.8720000  32.3740000  50.2470000  36.1340000  30.0860000  50.4730000
  35.4300000  31.3620000  50.3470000  35.5850000  29.4030000  51.1280000
  37.1330000  30.2330000  50.8950000  36.2450000  29.6050000  49.4970000
  25.1680000  43.6050000  24.8900000  24.4190000  43.6840000  27.4010000
  24.8370000  43.6400000  26.0010000  23.4370000  44.1560000  27.4990000
  25.1320000  44.2570000  28.0020000  24.3540000  42.6760000  27.8200000
  47.3700000  30.5940000  40.4430000  46.5950000  32.9880000  39.7070000
  47.0270000  31.6530000  40.1170000  46.6830000  33.6970000  40.5360000
  45.5500000  32.9760000  39.3800000  47.2050000  33.3570000  38.8790000
  46.2050000  42.9160000  46.9510000  45.5500000  44.5130000  48.9240000
  45.9160000  43.6220000  47.8240000  46.1480000  45.4290000  48.8980000
  45.7170000  44.0260000  49.8900000  44.4950000  44.7940000  48.8640000
  22.0960000  35.3660000  50.0840000  21.0180000  35.4360000  47.6950000
  21.6190000  35.3970000  49.0270000  20.7730000  34.4270000  47.3490000
  21.7050000  35.8860000  46.9710000  20.0970000  36.0260000  47.7010000
  24.3040000  28.1070000  44.1520000  22.8220000  26.0500000  44.8200000
  23.6480000  27.1970000  44.4470000  22.7020000  25.9930000  45.9060000
  23.2770000  25.1150000  44.4780000  21.8260000  26.1260000  44.3720000
  25.3770000  47.0730000  24.6980000  23.5400000  47.1090000  22.8270000
  24.5650000  47.0890000  23.8700000  23.6910000  47.9560000  22.1500000
  22.5410000  47.1980000  23.2640000  23.5710000  46.1910000  22.2330000
  31.4690000  28.7750000  39.5430000  29.0030000  29.2610000  38.7950000
  30.3780000  28.9900000  39.2120000  28.6740000  30.2410000  39.1530000
  28.3190000  28.5060000  39.1950000  28.9190000  29.2520000  37.7050000
  43.8310000  44.0390000  24.9510000  41.2420000  44.3810000  25.1860000
  42.6850000  44.1900000  25.0550000  40.9510000  45.3860000  24.8680000
  40.9250000  44.2480000  26.2250000  40.6970000  43.6590000  24.5700000
  37.0680000  47.0410000  27.7780000  36.2250000  46.0760000  30.0650000
  36.6950000  46.6140000  28.7900000  36.6860000  46.6050000  30.9040000
  36.4740000  45.0140000  30.1550000  35.1400000  46.1790000  30.1540000
  31.9960000  28.6090000  44.5090000  32.6150000  30.4580000  42.7550000
  32.2700000  29.4270000  43.7330000  33.5860000  30.9050000  42.9880000
  31.8660000  31.2550000  42.7500000  32.6680000  30.0360000  41.7470000
  47.7030000  51.8930000  23.1710000  49.0090000  50.9240000  21.1150000
  48.2810000  51.4640000  22.2610000  48.5520000  51.2490000  20.1750000
  49.0060000  49.8290000  21.1330000  50.0500000  51.2600000  21.1210000
  39.3850000  52.1980000  25.1440000  41.3060000  51.5310000  26.7980000
  40.2350000  51.9030000  25.8760000  41.2270000  50.4770000  27.0830000
  41.2610000  52.1330000  27.7110000  42.2870000  51.6850000  26.3380000
  50.5950000  50.2140000  52.1390000  48.5120000  48.8040000  51.4000000
  49.6730000  49.5900000  51.8120000  48.7410000  48.2080000  50.5110000
  47.6650000  49.4560000  51.1630000  48.2020000  48.1210000  52.1960000
  32.3880000  20.2010000  32.4460000  30.7460000  18.1760000  32.1680000
  31.6620000  19.3050000  32.3230000  30.9540000  17.4010000  32.9120000
  30.8450000  17.7280000  31.1740000  29.7080000  18.4970000  32.2930000
  29.6820000  40.7460000  23.7740000  28.0900000  42.7870000  23.3550000
  28.9780000  41.6490000  23.5890000  28.6600000  43.7180000  23.2920000
  27.3640000  42.8870000  24.1680000  27.5370000  42.6640000  22.4190000
  35.1790000  38.4540000  41.8540000  33.4780000  40.4390000  41.6500000
  34.4260000  39.3320000  41.7640000  32.4490000  40.0680000  41.6170000
  33.6600000  41.0150000  40.7370000  33.5680000  41.1180000  42.5020000
  36.8130000  51.9640000  30.0900000  36.5060000  51.3550000  32.6210000
  36.6770000  51.6940000  31.2100000  35.9980000  50.3930000  32.7310000
  35.9080000  52.1150000  33.1340000  37.4740000  51.2880000  33.1260000
  30.6490000  39.2870000  51.9470000  28.4730000  39.0200000  50.5090000
  29.6870000  39.1690000  51.3110000  27.9880000  38.0610000  50.7120000
  28.7050000  39.0650000  49.4410000  27.7580000  39.8170000  50.7350000
  26.1150000  28.7590000  47.7460000  28.1330000  28.6620000  46.0740000
  27.0080000  28.7160000  47.0060000  27.9220000  29.2480000  45.1750000
  28.3360000  27.6310000  45.7690000  29.0400000  29.0640000  46.5350000
  29.6150000  45.1720000  28.2230000  29.6630000  47.2440000  29.8290000
  29.6360000  46.0890000  28.9330000  30.6620000  47.3860000  30.2510000
  28.9600000  47.1100000  30.6580000  29.3860000  48.1570000  29.2940000
  29.3950000  50.8450000  36.1500000  28.9630000  48.4450000  35.1870000
  29.2040000  49.7830000  35.7240000  29.8930000  47.9980000  34.8240000
  28.2560000  48.4820000  34.3530000  28.5470000  47.7870000  35.9560000
  45.9840000  45.6100000  34.8140000  48.2590000  44.7590000  33.8260000
  46.9910000  45.2330000  34.3770000  48.6820000  43.9650000  34.4490000
  48.9890000  45.5730000  33.7720000  48.1210000  44.3610000  32.8170000
  21.0410000  25.8390000  30.1030000  23.2400000  26.1150000  31.5030000
  22.0140000  25.9610000  30.7220000  23.8830000  25.2370000  31.3960000
  23.0110000  26.2410000  32.5660000  23.8050000  26.9920000  31.1720000
  43.6470000  45.9280000  18.6350000  43.4260000  46.2140000  21.2320000
  43.5490000  46.0550000  19.7840000  42.5630000  46.8370000  21.4830000
  44.3200000  46.6890000  21.6480000  43.2990000  45.2440000  21.7210000
  36.1390000  51.6810000  27.8140000  38.0390000  49.9280000  27.3750000
  36.9800000  50.9050000  27.6200000  37.7000000  49.1530000  26.6810000
  38.3420000  49.4410000  28.3070000  38.9200000  50.4100000  26.9420000
  42.5590000  47.1830000  44.6830000  44.9440000  47.2670000  45.7690000
  43.6140000  47.2210000  45.1630000  44.9710000  47.9860000  46.5930000
  45.6960000  47.5670000  45.0320000  45.2270000  46.2870000  46.1630000
  40.1620000  28.8560000  25.1530000  41.9940000  27.0060000  24.8380000
  40.9720000  28.0370000  25.0140000  42.9660000  27.3560000  25.1960000
  42.0970000  26.7370000  23.7820000  41.7320000  26.1010000  25.3940000
  27.8430000  36.2910000  28.2420000  27.5370000  38.5610000  26.9670000
  27.7070000  37.2950000  27.6780000  28.3480000  38.7170000  26.2500000
  27.5350000  39.4030000  27.6660000  26.5910000  38.5740000  26.4170000
  37.6460000  28.8550000  47.9930000  38.7830000  26.5830000  48.6420000
  38.1490000  27.8500000  48.2800000  39.1670000  26.6190000  49.6650000
  39.6200000  26.3630000  47.9720000  38.0690000  25.7580000  48.5750000
  52.0150000  27.1700000  50.3770000  50.1640000  28.9970000  50.0400000
  51.1960000  27.9780000  50.2280000  49.7300000  28.9300000  49.0380000
  50.5820000  30.0010000  50.1640000  49.3580000  28.8720000  50.7690000
  22.2070000  32.5330000  40.4800000  24.3310000  31.3180000  39.5400000
  23.1470000  31.9960000  40.0640000  25.1360000  31.3130000  40.2810000
  24.7010000  31.8200000  38.6400000  24.1030000  30.2800000  39.2800000
  42.8120000  35.1950000  46.1240000  40.4560000  34.1160000  45.7270000
  41.7700000  34.7180000  45.9490000  39.9070000  34.6540000  44.9490000
  39.8570000  34.1400000  46.6440000  40.5540000  33.0720000  45.4140000
  48.0830000  20.7270000  33.8690000  47.5550000  18.1580000  33.8690000
  47.8490000  19.5900000  33.8690000  46.4750000  17.9830000  33.8640000
  47.9730000  17.6750000  34.7570000  47.9810000  17.6730000  32.9860000
  27.8280000  36.4350000  24.9950000  25.3860000  35.4980000  25.1840000
  26.7470000  36.0210000  25.0780000  24.6710000  36.1750000  24.7070000
  25.0950000  35.3800000  26.2320000  25.3050000  34.5220000  24.6970000
  21.7340000  37.7760000  20.6700000  22.7530000  40.1290000  20.1200000
  22.1850000  38.8170000  20.4270000  21.9700000  40.8920000  20.0790000
  23.2650000  40.1150000  19.1530000  23.4780000  40.4270000  20.8830000
  47.4890000  23.1990000  51.9480000  46.5100000  23.2120000  49.5160000
  47.0560000  23.2050000  50.8720000  45.5290000  23.6950000  49.4940000
  46.3950000  22.1920000  49.1370000  47.1710000  23.7550000  48.8340000
  30.9550000  38.1890000  42.6110000  30.2280000  40.7070000  42.6910000
  30.6330000  39.3030000  42.6470000  29.3340000  40.8340000  43.3100000
  30.0020000  41.0790000  41.6870000  31.0230000  41.3290000  43.1120000
  49.1540000  31.9020000  43.6950000  50.0150000  32.9250000  45.9510000
  49.5350000  32.3550000  44.6930000  50.5640000  32.1780000  46.5320000
  49.1800000  33.2840000  46.5600000  50.6860000  33.7690000  45.7640000
  17.4000000  27.7390000  26.0160000  19.2360000  29.5830000  26.3400000
  18.2120000  28.5550000  26.1590000  18.9510000  30.2800000  27.1340000
  19.3780000  30.1570000  25.4190000  20.1950000  29.1330000  26.6110000
  40.6450000  33.2930000  26.0660000  39.8240000  33.6090000  23.5960000
  40.2820000  33.4330000  24.9740000  40.6530000  33.8990000  22.9450000
  39.0570000  34.3880000  23.5380000  39.3950000  32.6810000  23.2070000
  26.0260000  45.9020000  47.6750000  26.0010000  43.2960000  47.3870000
  26.0150000  44.7490000  47.5480000  26.9140000  42.8510000  47.7920000
  25.9300000  43.0220000  46.3290000  25.1470000  42.8550000  47.9090000
  18.8700000  44.7970000  24.1920000  20.6790000  43.5610000  25.6320000
  19.6710000  44.2500000  24.8290000  20.9340000  42.5930000  25.1900000
  20.3130000  43.3840000  26.6490000  21.5950000  44.1550000  25.7000000
  32.1640000  18.2950000  18.4300000  34.5460000  19.3730000  18.6240000
  33.2180000  18.7720000  18.5150000  34.5610000  20.3670000  18.1680000
  35.2950000  18.7560000  18.1180000  34.8430000  19.4750000  19.6710000
  30.0410000  46.7960000  37.8040000  27.4550000  47.0710000  38.1410000
  28.8970000  46.9180000  37.9530000  27.0760000  46.3350000  38.8560000
  26.9220000  46.9320000  37.1950000  27.2160000  48.0680000  38.5220000
  23.1590000  22.4000000  25.8650000  22.7020000  24.9690000  25.6070000
  22.9570000  23.5370000  25.7510000  21.9590000  25.3070000  26.3350000
  22.3240000  25.1980000  24.6050000  23.6180000  25.5450000  25.7640000
  34.9840000  26.1870000  32.9440000  35.6190000  23.7370000  33.6310000
  35.2650000  25.1030000  33.2480000  34.7280000  23.1690000  33.9130000
  36.3050000  23.7380000  34.4840000  36.1070000  23.2150000  32.8030000
  36.8060000  19.8500000  49.5620000  39.3400000  19.9550000  48.8980000
  37.9270000  19.8960000  49.2690000  39.7870000  20.9010000  49.2170000
  39.4620000  19.8700000  47.8140000  39.8990000  19.1400000  49.3680000
  32.0170000  36.0700000  37.5570000  30.1410000  37.9000000  37.6320000
  31.1870000  36.8790000  37.5900000  29.2790000  37.5500000  38.2090000
  29.7960000  38.1450000  36.6220000  30.5110000  38.8180000  38.0970000
  37.0570000  25.0140000  31.2680000  34.6310000  24.0930000  30.8930000
  35.9840000  24.6060000  31.1020000  34.5430000  23.0670000  31.2640000
  34.3750000  24.0930000  29.8290000  33.8960000  24.7080000  31.4190000
  50.1870000  25.7030000  29.4980000  50.2320000  24.1920000  31.6400000
  50.2070000  25.0350000  30.4450000  51.0300000  24.5050000  32.3200000
  50.4030000  23.1450000  31.3730000  49.2820000  24.2540000  32.1800000
  29.2530000  24.6020000  49.8360000  31.7150000  25.4510000  50.1370000
  30.3420000  24.9780000  49.9690000  32.1300000  25.1110000  51.0900000
  31.7540000  26.5450000  50.1200000  32.3570000  25.0770000  49.3340000
  17.4000000  47.0350000  40.4830000  18.4260000  49.2720000  39.5770000
  17.8540000  48.0240000  40.0820000  18.7050000  49.1730000  38.5240000
  19.3220000  49.5460000  40.1420000  17.7070000  50.0920000  39.6620000
  36.1190000  31.6040000  27.1250000  35.6670000  31.8000000  24.5500000
  35.9190000  31.6910000  25.9860000  36.1040000  30.9530000  24.0130000
  36.1030000  32.7200000  24.1470000  34.5930000  31.8150000  24.3430000
  20.8230000  34.5230000  38.6070000  19.9780000  36.8680000  39.4210000
  20.4490000  35.5610000  38.9670000  19.7480000  37.5150000  38.5690000
  20.7390000  37.3660000  40.0300000  19.0720000  36.7670000  40.0250000
  49.3390000  23.4150000  47.9120000  51.5810000  23.3200000  49.2690000
  50.3310000  23.3730000  48.5120000  52.1850000  22.4600000  48.9620000
  51.3830000  23.2310000  50.3410000  52.1730000  24.2250000  49.1070000
  24.7530000  38.6770000  25.2090000  25.3720000  39.0360000  22.6870000
  25.0270000  38.8360000  24.0930000  25.3960000  40.1010000  22.4400000
  24.6390000  38.5520000  22.0340000  26.3560000  38.6130000  22.4640000
  23.1110000  51.4610000  37.0740000  23.0670000  48.8410000  36.9830000
  23.0920000  50.3020000  37.0340000  23.8770000  48.4170000  37.5840000
  23.1860000  48.4860000  35.9540000  22.1200000  48.4540000  37.3680000
  45.6960000  45.0550000  23.7400000  48.2800000  44.9380000  23.3110000
  46.8390000  45.0030000  23.5500000  48.5350000  44.0620000  22.7080000
  48.8290000  44.8720000  24.2560000  48.6270000  45.8290000  22.7800000
  45.0320000  20.7720000  40.7610000  44.7030000  21.5710000  38.2860000
  44.8860000  21.1260000  39.6660000  45.6260000  22.0070000  37.8910000
  43.9160000  22.3300000  38.2230000  44.4190000  20.7340000  37.6410000
  45.0500000  29.9200000  29.2680000  46.5920000  29.3350000  31.3060000
  45.7320000  29.6610000  30.1700000  46.2040000  29.7780000  32.2270000
  47.6070000  29.7140000  31.1470000  46.6530000  28.2520000  31.4490000
  21.9670000  49.7220000  41.0400000  20.1890000  51.1430000  42.3420000
  21.1810000  50.3510000  41.6160000  20.3610000  51.0860000  43.4210000
  19.1770000  50.7800000  42.1390000  20.2390000  52.1940000  42.0460000
  17.6190000  34.8360000  42.5350000  20.1650000  34.7380000  41.9180000
  18.7450000  34.7920000  42.2620000  20.7860000  34.9500000  42.7930000
  20.4070000  35.4730000  41.1430000  20.4370000  33.7470000  41.5420000
  44.9620000  38.0720000  40.0110000  46.8660000  36.5330000  39.0710000
  45.8050000  37.3910000  39.5950000  46.6350000  35.4780000  39.2440000
  47.8210000  36.7560000  39.5570000  46.9900000  36.6810000  37.9950000
  38.5500000  37.2710000  22.0600000  40.8950000  37.6110000  23.1840000
  39.5870000  37.4210000  22.5580000  40.7960000  38.1380000  24.1380000
  41.5540000  38.1980000  22.5380000  41.3770000  36.6480000  23.3770000
  38.6950000  32.3800000  30.5360000  38.1350000  34.9250000  30.2490000
  38.4470000  33.5060000  30.4090000  39.0300000  35.4920000  29.9750000
  37.7390000  35.3440000  31.1790000  37.3870000  35.0730000  29.4650000
  30.3700000  28.2200000  21.5410000  31.2930000  30.6740000  21.4990000
  30.7780000  29.3050000  21.5220000  32.1990000  30.7390000  20.8900000
  31.5380000  31.0140000  22.5100000  30.5520000  31.3610000  21.0800000
  44.2760000  26.8930000  41.7540000  46.6770000  26.0430000  42.3780000
  45.3380000  26.5170000  42.0300000  46.9530000  25.1770000  41.7690000
  46.7240000  25.7470000  43.4310000  47.4220000  26.8260000  42.2120000
  49.6720000  26.6650000  38.9170000  47.3500000  27.7120000  38.2920000
  48.6450000  27.1290000  38.6400000  47.4330000  28.3360000  37.3970000
  46.9730000  28.3370000  39.1080000  46.6110000  26.9300000  38.0940000
  49.8190000  41.9350000  44.8090000  51.1710000  44.1250000  44.3100000
  50.4170000  42.9040000  44.5880000  51.9080000  43.9560000  43.5200000
  51.7040000  44.4660000  45.2040000  50.5040000  44.9290000  43.9860000
  20.7290000  19.4610000  29.0310000  18.5270000  18.1040000  29.4630000
  19.7550000  18.8610000  29.2220000  18.6590000  17.4010000  30.2900000
  18.2410000  17.5340000  28.5740000  17.7000000  18.7750000  29.7160000
  26.4890000  26.1970000  46.0960000  26.4170000  25.8280000  43.5010000
  26.4570000  26.0340000  44.9480000  25.7140000  26.5210000  43.0290000
  26.1000000  24.8080000  43.2620000  27.4030000  25.9890000  43.0570000
  36.6100000  34.0960000  43.1490000  37.5670000  34.8500000  40.8270000
  37.0330000  34.4300000  42.1220000  36.7760000  34.8840000  40.0730000
  38.3370000  34.1540000  40.4800000  38.0150000  35.8450000  40.8950000
  32.7320000  48.9060000  44.8460000  31.5860000  47.6430000  46.8380000
  32.2250000  48.3470000  45.7270000  30.5030000  47.5900000  46.6930000
  31.7780000  48.1550000  47.7860000  31.9680000  46.6210000  46.9210000
  27.6860000  44.4170000  29.6040000  27.8290000  43.5560000  27.1310000
  27.7490000  44.0360000  28.5100000  27.8810000  42.4640000  27.1020000
  28.7190000  43.9520000  26.6320000  26.9510000  43.8690000  26.5590000
  18.3300000  34.7190000  47.5060000  19.3010000  34.9580000  45.0820000
  18.7600000  34.8250000  46.4340000  18.5910000  35.4720000  44.4280000
  19.5120000  33.9760000  44.6490000  20.2320000  35.5330000  45.0910000
  30.5560000  25.9090000  37.1980000  31.6650000  23.7030000  36.3170000
  31.0470000  24.9330000  36.8080000  31.0010000  22.8470000  36.4670000
  32.6030000  23.5010000  36.8440000  31.8860000  23.7780000  35.2490000
  24.0090000  43.2640000  35.0890000  23.4590000  40.8180000  34.3220000
  23.7660000  42.1820000  34.7500000  23.6920000  40.6810000  33.2620000
  22.3970000  40.5940000  34.4690000  24.0410000  40.0900000  34.8950000
  26.4480000  47.0870000  27.7000000  24.4030000  48.6030000  28.3260000
  25.5430000  47.7580000  27.9770000  24.4430000  49.5530000  27.7850000
  24.3950000  48.8230000  29.3980000  23.4600000  48.1080000  28.0750000
  45.6100000  42.4280000  37.5070000  44.2540000  42.4640000  39.7510000
  45.0100000  42.4440000  38.4990000  44.7540000  43.0880000  40.4970000
  44.1570000  41.4540000  40.1620000  43.2490000  42.8640000  39.5920000
  43.8210000  49.4440000  43.1420000  42.3430000  51.5800000  42.7820000
  43.1670000  50.3890000  42.9830000  41.3150000  51.3040000  42.5300000
  42.7390000  52.1940000  41.9670000  42.3180000  52.1930000  43.6870000
  49.8830000  36.8810000  35.4800000  50.3210000  39.4150000  34.9670000
  50.0760000  38.0020000  35.2530000  49.6190000  40.0500000  35.5160000
  50.2020000  39.6220000  33.8990000  51.3360000  39.7000000  35.2570000
  48.5030000  41.7590000  22.8660000  48.5350000  39.9350000  24.7490000
  48.5170000  40.9520000  23.6990000  48.1030000  38.9960000  24.3890000
  47.9580000  40.2630000  25.6190000  49.5590000  39.7330000  25.0780000
  32.4690000  40.4950000  51.6690000  31.3440000  42.7040000  50.8140000
  31.9720000  41.4720000  51.2910000  31.8980000  43.5810000  51.1610000
  30.3160000  42.7840000  51.1810000  31.3170000  42.7290000  49.7210000
  31.1770000  20.9990000  42.5240000  28.6090000  21.1720000  42.0260000
  30.0410000  21.0760000  42.3040000  28.0860000  20.2730000  42.3650000
  28.4280000  21.2880000  40.9530000  28.1700000  22.0340000  42.5390000
  35.1270000  33.8690000  47.4220000  34.4540000  33.3480000  44.9420000
  34.8300000  33.6380000  46.3250000  33.3760000  33.1870000  44.8570000
  34.9620000  32.4470000  44.5820000  34.7270000  34.1770000  44.2820000
  21.3730000  45.8270000  27.8980000  23.3800000  46.1850000  26.2490000
  22.2610000  45.9850000  27.1690000  23.4900000  45.3280000  25.5780000
  24.3180000  46.3080000  26.8000000  23.2260000  47.0790000  25.6380000
  51.1600000  38.9400000  19.3640000  49.0890000  37.4890000  18.6710000
  50.2440000  38.2980000  19.0580000  48.6190000  37.0380000  19.5500000
  49.3870000  36.6840000  17.9930000  48.3390000  38.1010000  18.1620000
  36.9410000  26.2600000  19.5360000  35.2010000  28.1650000  20.0020000
  36.1710000  27.1030000  19.7420000  34.1830000  27.7650000  20.0230000
  35.2470000  28.9340000  19.2230000  35.3980000  28.6450000  20.9650000
  25.4200000  43.1140000  33.4080000  26.0930000  40.6320000  32.8960000
  25.7180000  42.0160000  33.1810000  25.9440000  39.9990000  33.7760000
  27.1460000  40.5660000  32.6050000  25.4890000  40.2260000  32.0790000
  43.0020000  21.1750000  27.2430000  42.7120000  19.4260000  29.1750000
  42.8730000  20.4010000  28.0980000  43.5170000  19.5210000  29.9100000
  42.7300000  18.4050000  28.7820000  41.7600000  19.5730000  29.6940000
  41.5500000  32.9030000  39.8630000  42.5210000  30.5000000  39.4660000
  41.9800000  31.8400000  39.6870000  43.4170000  30.3370000  40.0730000
  42.7920000  30.3580000  38.4150000  41.7860000  29.7350000  39.7330000
  46.3020000  18.2560000  39.5290000  47.2790000  18.6280000  37.1240000
  46.7340000  18.4200000  38.4650000  47.5850000  19.6690000  36.9850000
  46.5340000  18.3870000  36.3600000  48.1540000  17.9920000  36.9570000
  39.1420000  51.9550000  31.7850000  39.7620000  49.4240000  32.0750000
  39.4170000  50.8360000  31.9140000  39.7590000  49.1420000  33.1320000
  40.7590000  49.2190000  31.6710000  39.0460000  48.7860000  31.5510000
  52.1990000  46.3590000  42.1000000  50.7900000  44.3110000  41.2670000
  51.5750000  45.4530000  41.7310000  50.4050000  44.4870000  40.2580000
  49.9370000  44.1300000  41.9290000  51.3990000  43.4030000  41.2440000
  38.7910000  44.0860000  32.9560000  36.3280000  43.2150000  33.1740000
  37.7010000  43.7010000  33.0520000  36.3090000  42.1300000  33.3140000
  35.7500000  43.4510000  32.2740000  35.8260000  43.6760000  34.0300000
  23.2780000  34.9910000  43.5120000  24.8150000  36.9740000  42.7500000
  23.9580000  35.8680000  43.1750000  24.6450000  37.2150000  41.6970000
  25.8720000  36.7170000  42.8730000  24.6130000  37.8720000  43.3410000
  28.5940000  43.0370000  45.1740000  29.0270000  45.0280000  43.5230000
  28.7850000  43.9180000  44.4430000  28.4560000  44.8970000  42.5990000
  30.0870000  45.0930000  43.2620000  28.7290000  45.9790000  43.9740000
  47.3530000  28.9640000  35.2620000  49.8330000  29.7920000  35.0640000
  48.4500000  29.3300000  35.1740000  49.9650000  30.7500000  35.5750000
  50.1160000  29.9240000  34.0150000  50.5210000  29.0700000  35.5130000
  47.5690000  22.2550000  30.2360000  46.7220000  24.7220000  29.9760000
  47.1940000  23.3460000  30.1210000  46.8230000  25.0610000  28.9410000
  47.2980000  25.4010000  30.6130000  45.6680000  24.8040000  30.2580000
  49.0770000  28.4050000  46.9640000  47.4690000  28.5400000  44.8970000
  48.3650000  28.4650000  46.0490000  47.7660000  29.3500000  44.2250000
  46.4390000  28.7260000  45.2180000  47.4840000  27.6050000  44.3300000
  35.6540000  25.5870000  35.6760000  34.3590000  27.8660000  35.6170000
  35.0810000  26.5950000  35.6500000  34.6080000  28.4310000  34.7150000
  34.6150000  28.4810000  36.4850000  33.2780000  27.6990000  35.6270000
  49.1350000  32.0440000  28.3430000  51.7230000  31.9630000  28.7590000
  50.2800000  32.0080000  28.5270000  52.1930000  32.9080000  28.4700000
  52.1860000  31.1610000  28.1770000  51.9410000  31.7850000  29.8160000
  25.6090000  40.2580000  39.0940000  28.2010000  40.6360000  39.1940000
  26.7560000  40.4250000  39.1380000  28.4440000  41.5010000  39.8170000
  28.6070000  40.8130000  38.1930000  28.7060000  39.7620000  39.6150000
  25.4330000  36.0590000  44.9260000  24.4990000  34.4690000  46.7900000
  25.0200000  35.3560000  45.7510000  25.3150000  34.0210000  47.3640000
  23.9070000  33.6600000  46.3510000  23.8580000  35.0190000  47.4850000
  32.2570000  26.9710000  47.7040000  32.6660000  28.8950000  49.4370000
  32.4380000  27.8220000  48.4700000  32.1820000  28.6690000  50.3910000
  32.2630000  29.8440000  49.0680000  33.7350000  29.0310000  49.6230000
  46.1850000  32.0940000  23.0160000  45.4220000  34.5970000  22.8420000
  45.8480000  33.2020000  22.9390000  45.2280000  35.0140000  23.8340000
  44.5050000  34.6840000  22.2510000  46.1940000  35.2060000  22.3620000
  48.1710000  51.2510000  43.0700000  48.9080000  49.5320000  44.9070000
  48.4970000  50.4900000  43.8830000  49.7120000  49.9430000  45.5240000
  49.2700000  48.6050000  44.4500000  48.0700000  49.2810000  45.5640000
  22.4620000  32.1000000  34.8390000  22.6900000  33.3710000  37.1210000
  22.5630000  32.6620000  35.8490000  22.0920000  32.8860000  37.8980000
  22.3470000  34.4060000  37.0250000  23.7310000  33.3880000  37.4550000
  38.0780000  25.7680000  24.5210000  39.8770000  24.1730000  23.4740000
  38.8740000  25.0630000  24.0580000  39.4020000  23.3130000  22.9950000
  40.5600000  23.8000000  24.2430000  40.4690000  24.6980000  22.7190000
  49.1880000  51.7270000  26.0610000  48.7250000  50.3390000  28.2360000
  48.9830000  51.1130000  27.0230000  48.1520000  50.9270000  28.9590000
  49.6640000  50.0370000  28.7120000  48.1550000  49.4340000  28.0060000
  37.1420000  51.3600000  25.4320000  36.1220000  49.3680000  24.0650000
  36.6910000  50.4790000  24.8280000  36.0120000  49.6370000  23.0110000
  35.1350000  49.0960000  24.4520000  36.7660000  48.4860000  24.1250000
  26.9820000  29.3500000  29.0760000  25.5290000  31.4830000  28.6130000
  26.3390000  30.2940000  28.8720000  26.0130000  32.3780000  29.0160000
  24.5430000  31.3910000  29.0790000  25.3850000  31.6300000  27.5390000
  21.4160000  40.4320000  48.9340000  21.1790000  40.2600000  46.3290000
  21.3110000  40.3560000  47.7810000  20.1270000  40.1850000  46.0380000
  21.7010000  39.3760000  45.9480000  21.6050000  41.1410000  45.8400000
  31.4740000  35.6630000  49.2800000  30.3240000  36.0030000  51.6120000
  30.9650000  35.8140000  50.3120000  30.3350000  35.0750000  52.1900000
  29.2820000  36.3150000  51.4890000  30.8420000  36.7720000  52.1930000
  21.0770000  34.7010000  17.4090000  19.4490000  35.7290000  19.1890000
  20.3570000  35.1560000  18.1960000  19.7030000  35.3810000  20.1950000
  18.4140000  35.4430000  18.9810000  19.5070000  36.8220000  19.1840000
  18.4330000  47.8710000  22.8590000  18.4080000  50.2240000  21.7000000
  18.4220000  48.9120000  22.3460000  18.7580000  50.9990000  22.3880000
  17.3970000  50.4870000  21.3770000  19.0590000  50.2310000  20.8210000
  31.0550000  52.1750000  32.6320000  30.2590000  49.7280000  32.1290000
  30.7030000  51.0920000  32.4090000  29.4960000  49.7210000  31.3450000
  29.8300000  49.2660000  33.0240000  31.0950000  49.1080000  31.7940000
  32.4270000  33.1800000  18.3350000  33.6160000  34.0290000  20.5130000
  32.9530000  33.5560000  19.2990000  33.4440000  33.3400000  21.3440000
  33.2380000  35.0140000  20.8040000  34.6960000  34.1130000  20.3590000
  31.1180000  49.5740000  38.5140000  30.6380000  47.5850000  40.1530000
  30.9060000  48.6940000  39.2390000  31.2470000  46.7130000  39.8950000
  29.5850000  47.2900000  40.1090000  30.8690000  47.8670000  41.1850000
  38.0610000  33.5570000  45.5710000  37.1430000  36.0130000  45.5250000
  37.6540000  34.6440000  45.5500000  36.2320000  36.0990000  46.1240000
  36.9060000  36.3210000  44.5010000  37.8810000  36.7120000  45.9270000
  46.4580000  33.4610000  42.8280000  45.2730000  35.5490000  43.8840000
  45.9330000  34.3850000  43.2950000  45.8050000  35.8870000  44.7780000
  44.2450000  35.3080000  44.1720000  45.2410000  36.3790000  43.1730000
  33.7270000  47.2730000  48.9940000  34.0090000  49.6320000  47.8840000
  33.8520000  48.3160000  48.5030000  33.7330000  50.4260000  48.5840000
  33.3740000  49.7230000  46.9980000  35.0460000  49.7950000  47.5770000
  31.1800000  34.7510000  45.1940000  29.7770000  32.5810000  44.7470000
  30.5590000  33.7910000  44.9960000  28.9480000  32.7880000  44.0640000
  29.3590000  32.1890000  45.6790000  30.3990000  31.8010000  44.3000000
  25.5430000  40.8650000  50.4260000  26.2430000  43.3800000  50.6710000
  25.8530000  41.9780000  50.5340000  27.0600000  43.6250000  49.9860000
  26.5800000  43.5920000  51.6910000  25.4020000  44.0420000  50.4470000
  42.9240000  42.4420000  18.2740000  45.3740000  41.9470000  19.0670000
  44.0080000  42.2230000  18.6250000  45.8010000  41.1080000  18.5090000
  45.3950000  41.6940000  20.1310000  46.0160000  42.8190000  18.9130000
  40.6500000  46.0300000  49.5400000  42.6610000  46.9970000  48.1610000
  41.5400000  46.4580000  48.9300000  42.8050000  46.4320000  47.2360000
  43.5890000  46.9460000  48.7390000  42.4830000  48.0430000  47.8970000
  34.1700000  27.4710000  25.3270000  32.7370000  25.2980000  25.0110000
  33.5360000  26.5100000  25.1870000  32.9870000  24.5530000  25.7720000
  32.9180000  24.8520000  24.0280000  31.6690000  25.5210000  25.0910000
  32.3140000  47.2640000  36.6990000  32.1360000  44.8610000  37.7320000
  32.2350000  46.2010000  37.1560000  31.7500000  44.9040000  38.7550000
  33.1160000  44.3750000  37.7590000  31.4630000  44.2320000  37.1420000
  33.2090000  39.6630000  18.7730000  33.1690000  37.4100000  20.1130000
  33.1910000  38.6670000  19.3660000  32.9090000  37.5860000  21.1610000
  34.1480000  36.9220000  20.0830000  32.4320000  36.7200000  19.6920000
  37.0360000  22.3220000  52.2000000  38.8820000  24.0340000  51.4660000
  37.8520000  23.0800000  51.8750000  39.2360000  23.8140000  50.4550000
  39.7400000  23.9940000  52.1430000  38.4900000  25.0550000  51.4730000
  26.7150000  21.7430000  50.4870000  25.5150000  23.6520000  49.1490000
  26.1840000  22.5880000  49.8950000  24.4320000  23.6080000  49.2950000
  25.7180000  23.5630000  48.0770000  25.8620000  24.6360000  49.4790000
  38.0100000  41.7960000  50.6170000  40.2140000  41.5250000  49.2230000
  38.9850000  41.6760000  50.0000000  40.3330000  42.3540000  48.5190000
  40.2000000  40.5930000  48.6500000  41.0900000  41.5080000  49.8780000
  17.8830000  21.3590000  26.1230000  20.2680000  21.9790000  27.0210000
  18.9380000  21.6330000  26.5200000  20.4620000  23.0490000  26.9030000
  21.0430000  21.4310000  26.4760000  20.3600000  21.7320000  28.0820000
  42.6990000  38.8500000  36.0870000  43.0420000  40.0830000  38.3750000
  42.8510000  39.3950000  37.0990000  42.1710000  39.9500000  39.0230000
  43.1910000  41.1560000  38.2210000  43.9180000  39.6910000  38.9000000
  17.6690000  28.8150000  23.7180000  19.6290000  27.0980000  24.0050000
  18.5360000  28.0550000  23.8450000  20.4310000  27.5210000  24.6180000
  20.0530000  26.8250000  23.0340000  19.2780000  26.1830000  24.4910000
  30.3080000  27.3350000  52.1930000  29.2110000  27.9080000  49.8810000
  29.8230000  27.5880000  51.1700000  28.6070000  28.8170000  49.9520000
  28.5600000  27.0930000  49.5470000  29.9760000  28.0670000  49.1160000
  42.0960000  37.9480000  41.5810000  41.1160000  35.9780000  43.0070000
  41.6620000  37.0760000  42.2120000  40.1660000  36.2650000  43.4680000
  41.8080000  35.6940000  43.8060000  40.9380000  35.0970000  42.3840000
  44.4450000  39.8470000  34.5910000  45.1630000  38.1380000  36.4460000
  44.7630000  39.0910000  35.4120000  44.3090000  37.5370000  36.7730000
  45.5660000  38.6590000  37.3200000  45.9340000  37.4580000  36.0720000
  17.3900000  37.8760000  39.1090000  18.0240000  35.9990000  37.3910000
  17.6700000  37.0460000  38.3490000  17.6000000  36.2150000  36.4060000
  17.6430000  35.0270000  37.7190000  19.1090000  35.9200000  37.2850000
  38.7380000  27.5830000  36.4070000  38.7330000  25.5700000  34.7270000
  38.7360000  26.6930000  35.6640000  38.2820000  25.8610000  33.7730000
  38.1610000  24.7280000  35.1300000  39.7520000  25.2250000  34.5310000
  41.1140000  28.8250000  44.8350000  41.5110000  26.4200000  43.8690000
  41.2900000  27.7610000  44.4080000  40.7370000  26.1600000  43.1410000
  41.4920000  25.6720000  44.6670000  42.4820000  26.3570000  43.3680000
  22.7040000  41.2490000  28.8560000  21.6980000  38.8420000  28.6010000
  22.2590000  40.1840000  28.7430000  20.8110000  38.8570000  27.9600000
  21.4070000  38.4360000  29.5750000  22.4280000  38.1600000  28.1540000
  28.3500000  40.8440000  45.3040000  26.1120000  40.0570000  46.4200000
  27.3600000  40.4960000  45.7980000  25.2490000  40.5180000  45.9300000
  26.0870000  40.3320000  47.4800000  26.0030000  38.9710000  46.3500000
  37.7540000  48.7900000  45.2730000  36.0150000  50.7440000  45.4590000
  36.9850000  49.6540000  45.3550000  36.1360000  51.4510000  44.6330000
  36.1450000  51.2920000  46.3980000  34.9920000  50.3580000  45.4300000
  26.5690000  42.1400000  37.0330000  27.7860000  40.2180000  35.7290000
  27.1070000  41.2900000  36.4560000  28.7830000  40.0390000  36.1420000
  27.8970000  40.4750000  34.6710000  27.2190000  39.2840000  35.7940000
  45.1020000  50.6390000  37.8210000  43.7080000  48.7220000  36.7000000
  44.4850000  49.7910000  37.3250000  44.3020000  48.1990000  35.9450000
  42.8150000  49.1250000  36.2120000  43.3850000  47.9890000  37.4450000
  43.8650000  21.8690000  43.9160000  45.0650000  23.2790000  42.0600000
  44.3960000  22.4930000  43.0950000  46.1500000  23.1590000  42.1210000
  44.8340000  24.3430000  42.1690000  44.7440000  22.9630000  41.0630000
  29.9650000  45.3420000  46.0220000  31.8890000  45.9510000  44.3470000
  30.8160000  45.6110000  45.2810000  31.5510000  46.6960000  43.6210000
  32.2200000  45.0650000  43.7960000  32.7520000  46.3620000  44.8790000
  40.0430000  39.1010000  39.9340000  40.0320000  38.7190000  37.3400000
  40.0380000  38.9320000  38.7870000  39.0740000  38.3050000  37.0120000
  40.8230000  38.0210000  37.0470000  40.1960000  39.6610000  36.8080000
  36.4200000  40.9330000  26.2040000  33.8860000  40.2630000  26.2540000
  35.2990000  40.6360000  26.2260000  33.7580000  39.2510000  26.6490000
  33.4560000  40.2930000  25.2480000  33.3150000  40.9490000  26.8870000
  42.5720000  50.1130000  24.7400000  41.5980000  47.9750000  25.9050000
  42.1420000  49.1670000  25.2550000  41.4830000  48.1370000  26.9800000
  42.2620000  47.1170000  25.7590000  40.6180000  47.7200000  25.4920000
  25.0860000  38.8980000  49.1590000  23.7820000  38.1090000  47.0250000
  24.5090000  38.5490000  48.2150000  23.8200000  38.8710000  46.2420000
  22.7310000  37.9160000  47.2610000  24.2150000  37.1880000  46.6240000
  27.0250000  21.8980000  33.9570000  27.0280000  19.3390000  34.5260000
  27.0260000  20.7660000  34.2090000  27.3320000  18.7470000  33.6580000
  26.0300000  19.0070000  34.8320000  27.7220000  19.1230000  35.3440000
  40.3780000  24.0490000  47.9840000  42.6700000  22.8410000  48.3850000
  41.3920000  23.5150000  48.1610000  42.6260000  21.8010000  48.0490000
  42.9300000  22.8440000  49.4480000  43.4740000  23.3420000  47.8380000
  45.7740000  33.8450000  45.8970000  43.6900000  32.7870000  44.7080000
  44.8520000  33.3770000  45.3710000  42.9330000  33.5490000  44.4990000
  43.2320000  32.0180000  45.3380000  43.9770000  32.3230000  43.7600000
  42.9210000  49.1140000  40.0660000  41.3250000  51.1200000  39.5160000
  42.2150000  50.0020000  39.8230000  40.2880000  50.8680000  39.7540000
  41.3770000  51.3780000  38.4530000  41.6010000  52.0070000  40.0940000
  25.3160000  39.0750000  30.0180000  26.4810000  41.4110000  29.7740000
  25.8310000  40.1090000  29.9100000  27.3010000  41.3630000  29.0510000
  26.8920000  41.7430000  30.7320000  25.7690000  42.1670000  29.4300000
  46.5950000  27.1270000  18.7860000  46.3050000  29.7330000  18.7660000
  46.4660000  28.2800000  18.7770000  47.0850000  30.2070000  18.1630000
  46.3660000  30.1390000  19.7810000  45.3340000  30.0130000  18.3470000
  35.4440000  43.4340000  46.4480000  33.6950000  42.6800000  48.2500000
  34.6700000  43.1010000  47.2450000  34.0400000  42.9330000  49.2570000
  33.5340000  41.5980000  48.2070000  32.7320000  43.1730000  48.0870000
  41.8910000  20.4710000  38.0800000  41.4430000  19.0220000  35.9410000
  41.6930000  19.8300000  37.1340000  42.3550000  18.5080000  35.6220000
  41.0970000  19.6480000  35.1130000  40.6780000  18.2650000  36.1370000
  32.3440000  23.2460000  29.8270000  33.9220000  21.1850000  29.4570000
  33.0420000  22.3340000  29.6630000  33.6360000  20.3530000  30.1080000
  34.9620000  21.4460000  29.6780000  33.8730000  20.8370000  28.4210000
  26.3950000  36.5480000  40.5530000  25.4230000  34.1130000  40.5950000
  25.9650000  35.4710000  40.5720000  24.4470000  34.0750000  40.1030000
  25.2990000  33.7620000  41.6250000  26.0920000  33.4190000  40.0780000
  50.8430000  19.1930000  18.8830000  49.9500000  21.6230000  19.2980000
  50.4480000  20.2680000  19.0670000  49.5190000  21.7140000  20.2990000
  49.1750000  21.8830000  18.5690000  50.7580000  22.3550000  19.2090000
  43.4180000  38.2990000  21.3730000  45.9670000  37.6920000  21.4420000
  44.5460000  38.0300000  21.4030000  46.1770000  36.8230000  20.8120000
  46.2840000  37.4560000  22.4630000  46.5760000  38.5270000  21.0820000
  43.0330000  24.9470000  50.0730000  45.3470000  25.7360000  51.0200000
  44.0560000  25.2960000  50.4920000  45.2300000  26.6330000  51.6340000
  46.0410000  25.9680000  50.2070000  45.7990000  24.9570000  51.6400000
  47.8990000  46.8880000  44.5520000  48.3210000  45.0870000  46.4100000
  48.0850000  46.0910000  45.3740000  48.5030000  44.1050000  45.9650000
  47.4550000  45.0040000  47.0750000  49.1910000  45.3520000  47.0180000
  37.4370000  22.0860000  30.7620000  40.0310000  22.0570000  31.1390000
  38.5840000  22.0730000  30.9290000  40.4940000  21.2280000  30.5940000
  40.2690000  21.9400000  32.2010000  40.4860000  22.9880000  30.7900000
  20.8140000  31.1350000  28.3040000  22.8900000  30.3800000  26.8910000
  21.7320000  30.8010000  27.6790000  23.3270000  31.2290000  26.3570000
  22.6030000  29.6250000  26.1520000  23.6620000  29.9490000  27.5340000
  39.7740000  44.0710000  37.5590000  41.7740000  43.1030000  36.1670000
  40.6590000  43.6430000  36.9430000  42.1130000  42.1500000  36.5830000
  42.6210000  43.7960000  36.1690000  41.4780000  42.9330000  35.1270000
  18.2750000  40.2530000  38.2500000  20.8540000  39.8010000  38.3730000
  19.4160000  40.0530000  38.3040000  21.1340000  38.9650000  37.7240000
  21.1580000  39.5530000  39.3950000  21.4190000  40.6820000  38.0550000
  40.8780000  27.8070000  34.6310000  41.8410000  26.1420000  36.4120000
  41.3040000  27.0700000  35.4190000  42.1750000  26.6780000  37.3060000
  42.6960000  25.5910000  36.0080000  41.0820000  25.4150000  36.7160000
  22.9760000  32.3400000  17.4000000  25.2820000  33.2060000  18.3010000
  23.9960000  32.7230000  17.7980000  25.6590000  32.5540000  19.0940000
  25.1850000  34.2170000  18.7090000  26.0270000  33.2330000  17.5000000
  32.7690000  42.4680000  33.8930000  30.6570000  40.9140000  33.9280000
  31.8350000  41.7810000  33.9080000  29.7460000  41.4930000  33.7510000
  30.5590000  40.4130000  34.8970000  30.7270000  40.1450000  33.1540000
  36.5170000  37.8100000  23.7040000  34.6520000  35.9740000  23.5560000
  35.6920000  36.9970000  23.6380000  34.9240000  35.0940000  24.1460000
  34.5010000  35.6550000  22.5200000  33.6990000  36.3550000  23.9350000
  48.4540000  32.1330000  30.4170000  50.2950000  30.4610000  31.2480000
  49.2680000  31.3930000  30.7850000  49.8510000  29.6600000  31.8470000
  51.0380000  30.9760000  31.8650000  50.8150000  30.0030000  30.4020000
  18.9600000  24.3800000  18.6910000  19.9310000  21.9460000  18.6190000
  19.3900000  23.3030000  18.6590000  21.0050000  21.9490000  18.8290000
  19.7800000  21.4950000  17.6330000  19.4420000  21.3100000  19.3620000
  36.8670000  38.4610000  44.9630000  35.1920000  38.1230000  46.9520000
  36.1260000  38.3110000  45.8430000  34.6790000  39.0590000  47.1910000
  35.7180000  37.7840000  47.8500000  34.4350000  37.3750000  46.7000000
  46.3160000  41.3950000  41.0630000  47.4340000  43.7650000  40.9560000
  46.8110000  42.4440000  41.0160000  48.3560000  43.7340000  40.3690000
  47.6820000  44.1240000  41.9600000  46.7610000  44.4920000  40.4930000
  18.1030000  40.3160000  23.7640000  20.6660000  40.1470000  23.2360000
  19.2370000  40.2410000  23.5300000  21.2480000  40.7550000  23.9350000
  20.8790000  40.4990000  22.2220000  21.0120000  39.1130000  23.3170000
  48.8120000  40.0300000  45.7950000  46.6770000  40.9700000  44.5990000
  47.8680000  40.4460000  45.2660000  46.8390000  41.0500000  43.5200000
  46.4250000  41.9660000  44.9790000  45.8170000  40.3160000  44.7660000
  21.9600000  47.7060000  43.1450000  19.3570000  47.5770000  42.8630000
  20.8090000  47.6490000  43.0200000  18.9160000  46.9240000  43.6220000
  19.0910000  47.1810000  41.8780000  18.9050000  48.5680000  42.9640000
  35.7440000  39.5990000  21.1960000  33.3210000  40.5250000  21.5790000
  34.6720000  40.0090000  21.3660000  33.2670000  41.1010000  22.5080000
  32.5970000  39.7060000  21.6450000  33.0190000  41.1780000  20.7560000
  36.1890000  37.4380000  20.7480000  37.0430000  35.3100000  22.0190000
  36.5670000  36.4960000  21.3100000  37.9690000  34.9350000  21.5720000
  36.2990000  34.5090000  21.9800000  37.2420000  35.5380000  23.0700000
  29.6710000  40.8720000  17.8870000  28.6080000  39.8260000  20.0440000
  29.2010000  40.4090000  18.8410000  27.5170000  39.8810000  20.0050000
  28.9440000  40.3570000  20.9400000  28.8920000  38.7740000  20.1470000
  37.7410000  21.9740000  35.4790000  35.6900000  22.8060000  36.8860000
  36.8340000  22.3420000  36.1010000  34.8960000  23.1790000  36.2320000
  35.9840000  23.6170000  37.5600000  35.2790000  21.9940000  37.4910000
  47.5410000  48.5670000  25.4650000  45.8500000  50.4380000  24.7510000
  46.7930000  49.3950000  25.1490000  44.8200000  50.1310000  24.9550000
  45.9340000  50.6520000  23.6810000  46.0420000  51.3660000  25.2980000
  31.1740000  38.7360000  28.4600000  29.0570000  38.9440000  29.9930000
  30.2380000  38.8280000  29.1380000  28.2410000  38.3210000  29.6160000
  28.7050000  39.9790000  30.0310000  29.2840000  38.6250000  31.0140000
  38.7220000  17.6300000  46.7450000  36.7100000  18.9770000  45.7380000
  37.8320000  18.2260000  46.3000000  36.8690000  20.0540000  45.8490000
  35.7760000  18.7170000  46.2450000  36.5910000  18.7590000  44.6730000
  31.8650000  25.8570000  27.8300000  29.6130000  27.1890000  27.6720000
  30.8690000  26.4460000  27.7600000  29.7640000  28.1520000  27.1760000
  29.2030000  27.3800000  28.6690000  28.8680000  26.6270000  27.1010000
  46.5160000  39.8990000  39.4470000  48.9910000  40.4810000  40.0870000
  47.6110000  40.1560000  39.7300000  49.6270000  39.5930000  40.0270000
  49.0470000  40.8700000  41.1090000  49.3990000  41.2380000  39.4120000
  34.1600000  26.6050000  49.2800000  36.2280000  25.7770000  50.6630000
  35.0750000  26.2390000  49.8920000  36.7450000  24.9660000  50.1410000
  35.9170000  25.4060000  51.6440000  36.9430000  26.5910000  50.8190000
  45.0890000  22.5830000  28.5380000  45.2690000  21.7400000  31.0140000
  45.1680000  22.2100000  29.6330000  45.7490000  20.7580000  31.0570000
  44.2770000  21.6540000  31.4690000  45.8600000  22.4340000  31.6190000
  22.5600000  48.2200000  18.6340000  23.0810000  50.7750000  18.3650000
  22.7910000  49.3500000  18.5150000  24.0470000  50.9260000  17.8740000
  23.1160000  51.2700000  19.3410000  22.3130000  51.2670000  17.7620000
  35.0790000  26.9990000  29.7350000  36.1630000  28.8530000  28.2320000
  35.5590000  27.8190000  29.0700000  36.1600000  28.5530000  27.1800000
  37.2000000  29.0380000  28.5290000  35.6130000  29.7950000  28.3180000
  34.6160000  27.8120000  43.7210000  34.1180000  27.6010000  41.1550000
  34.3960000  27.7190000  42.5850000  33.0990000  27.2420000  40.9850000
  34.8100000  26.8970000  40.6810000  34.2250000  28.5690000  40.6570000
  49.1950000  23.1130000  50.3580000  49.2390000  25.7340000  50.4230000
  49.2150000  24.2730000  50.3870000  48.2320000  26.1430000  50.2960000
  49.8710000  26.1320000  49.6230000  49.6330000  26.0930000  51.3780000
  33.4690000  31.4070000  39.1060000  31.0670000  31.7320000  40.1050000
  32.4060000  31.5510000  39.5480000  30.8340000  30.9400000  40.8240000
  30.3100000  31.7060000  39.3150000  30.9870000  32.6930000  40.6210000
  36.1690000  47.9440000  49.5300000  35.2090000  50.1560000  50.5610000
  35.7440000  48.9230000  49.9860000  34.1300000  50.0750000  50.7190000
  35.3930000  51.0060000  49.8980000  35.6780000  50.3700000  51.5260000
  38.1650000  47.0220000  32.5800000  39.3750000  45.6420000  30.7080000
  38.7000000  46.4110000  31.7520000  38.6700000  44.9810000  30.1950000
  40.1710000  45.0240000  31.1340000  39.8220000  46.3050000  29.9620000
  32.4560000  32.2490000  49.8310000  30.0450000  31.3370000  49.3500000
  31.3890000  31.8450000  49.6180000  30.0670000  30.2590000  49.1630000
  29.6130000  31.8260000  48.4710000  29.3830000  31.5210000  50.2000000
  22.7590000  38.1590000  41.0930000  23.1640000  36.2520000  39.3400000
  22.9380000  37.3150000  40.3170000  24.2340000  36.0680000  39.2040000
  22.7400000  36.5210000  38.3670000  22.6980000  35.3180000  39.6660000
  35.4370000  29.3880000  47.4160000  37.1400000  31.1750000  46.5340000
  36.1900000  30.1790000  47.0260000  37.9300000  30.7020000  45.9440000
  37.6100000  31.7080000  47.3660000  36.6370000  31.9120000  45.9000000
  32.8010000  38.7520000  39.3210000  31.6340000  41.0520000  38.8450000
  32.2840000  39.7700000  39.1100000  32.2750000  41.8840000  39.1510000
  30.6900000  41.1300000  39.3950000  31.4160000  41.1650000  37.7790000
  36.6360000  38.5640000  39.2170000  37.9890000  38.7320000  41.4570000
  37.2350000  38.6390000  40.2080000  37.3450000  38.5260000  42.3160000
  38.4120000  39.7340000  41.5810000  38.8120000  38.0120000  41.4690000
  43.3430000  29.2040000  47.0820000  41.9400000  27.5580000  48.5650000
  42.7220000  28.4760000  47.7380000  42.4140000  27.4120000  49.5400000
  41.8480000  26.5810000  48.0820000  40.9320000  27.9490000  48.7340000
  41.3170000  21.4380000  25.0710000  43.1280000  23.2380000  24.4720000
  42.1180000  22.2340000  24.8060000  43.3440000  23.2290000  23.4000000
  44.0620000  23.0440000  25.0090000  42.7840000  24.2400000  24.7410000
  39.5440000  20.2650000  52.1990000  41.5310000  21.6210000  51.1550000
  40.4230000  20.8650000  51.7380000  41.9980000  21.0620000  50.3400000
  42.2980000  21.8290000  51.9080000  41.1810000  22.5770000  50.7550000
  37.2430000  48.9490000  30.2790000  34.6510000  49.0580000  30.6580000
  36.0960000  48.9970000  30.4470000  34.1790000  48.1070000  30.3950000
  34.2000000  49.8420000  30.0420000  34.4190000  49.2740000  31.7050000
  30.8240000  39.4520000  48.4040000  29.2940000  41.5740000  48.2270000
  30.1470000  40.3910000  48.3260000  28.5890000  41.4760000  47.3960000
  29.8940000  42.4730000  48.0590000  28.7180000  41.7160000  49.1460000
  41.9170000  44.3570000  19.5470000  41.1210000  44.4720000  22.0430000
  41.5650000  44.4080000  20.6520000  41.0570000  45.5100000  22.3830000
  41.8190000  43.9420000  22.6990000  40.1340000  44.0160000  22.1580000
  25.1200000  52.1890000  41.7280000  24.7830000  50.2820000  39.9610000
  24.9710000  51.3450000  40.9470000  25.7170000  49.7370000  39.7940000
  24.4530000  50.6930000  39.0020000  24.0280000  49.5660000  40.3000000
  39.6140000  41.4260000  38.0080000  40.7640000  42.2880000  40.2010000
  40.1230000  41.8070000  38.9780000  41.1570000  43.2990000  40.0620000
  41.5960000  41.6360000  40.4870000  40.0520000  42.3120000  41.0310000
  46.8140000  48.0610000  23.3760000  46.0250000  49.4680000  21.3100000
  46.4650000  48.6830000  22.4620000  46.8270000  50.1220000  20.9550000
  45.1660000  50.0940000  21.5710000  45.7300000  48.8150000  20.4840000
  36.4320000  22.1930000  48.2830000  34.1060000  22.0620000  49.4870000
  35.4030000  22.1350000  48.8160000  33.2960000  22.3170000  48.7970000
  34.0650000  22.7570000  50.3310000  33.9220000  21.0530000  49.8690000
  22.9830000  33.1130000  19.7870000  20.5070000  32.3010000  19.4970000
  21.8880000  32.7540000  19.6590000  19.8800000  33.1000000  19.0910000
  20.0840000  31.9920000  20.4580000  20.4550000  31.4480000  18.8140000
  21.7450000  47.8360000  39.4440000  21.5000000  45.5620000  40.7250000
  21.6370000  46.8300000  40.0110000  20.7260000  44.9390000  40.2680000
  21.2250000  45.7320000  41.7710000  22.4400000  45.0020000  40.7080000
  37.6540000  41.0970000  24.3500000  36.3410000  43.3550000  24.5830000
  37.0730000  42.0960000  24.4530000  36.9670000  44.2010000  24.2860000
  36.0210000  43.5140000  25.6170000  35.4490000  43.3530000  23.9490000
  33.2980000  46.8560000  18.3070000  31.2920000  45.2150000  18.7040000
  32.4110000  46.1300000  18.4830000  30.4800000  45.4160000  18.0000000
  30.8960000  45.3230000  19.7190000  31.6070000  44.1760000  18.5710000
  43.7050000  52.0980000  21.3570000  42.5830000  49.7420000  21.1050000
  43.2080000  51.0560000  21.2450000  41.7780000  49.6150000  21.8350000
  43.3140000  48.9440000  21.2630000  42.1570000  49.6190000  20.1050000
  23.6020000  49.9250000  23.6650000  21.7570000  49.6550000  21.8210000
  22.7860000  49.8060000  22.8490000  21.4310000  48.6140000  21.7460000
  22.1380000  49.9630000  20.8420000  20.8820000  50.2700000  22.0530000
  49.4460000  24.8330000  22.5160000  47.7570000  26.5910000  23.4790000
  48.6990000  25.6100000  22.9420000  48.2090000  27.5860000  23.5140000
  47.4510000  26.3210000  24.4950000  46.8580000  26.6470000  22.8580000
  32.7830000  22.6030000  41.8960000  34.1130000  24.6990000  42.7410000
  33.3720000  23.5300000  42.2700000  34.3470000  24.6070000  43.8060000
  33.5290000  25.6130000  42.5990000  35.0540000  24.8090000  42.1950000
  45.8120000  21.3290000  23.0700000  46.3830000  23.8370000  23.5780000
  46.0640000  22.4380000  23.2950000  45.8740000  24.1750000  24.4860000
  46.0690000  24.4820000  22.7520000  47.4590000  23.9690000  23.7220000
  46.3180000  45.7300000  21.4770000  48.3280000  47.0400000  20.4190000
  47.2070000  46.3100000  21.0090000  48.9710000  47.4610000  21.1980000
  47.9690000  47.8640000  19.7930000  48.9370000  46.3800000  19.7950000
  19.3510000  43.8710000  30.6330000  20.2970000  43.8790000  33.0780000
  19.7690000  43.8750000  31.7140000  20.0830000  44.8300000  33.5750000
  21.3820000  43.7330000  33.0760000  19.8480000  43.0770000  33.6710000
  44.4320000  33.6330000  47.6550000  42.2470000  32.5320000  48.5980000
  43.4660000  33.1460000  48.0720000  41.4060000  32.6930000  47.9180000
  41.9850000  32.9600000  49.5710000  42.3790000  31.4540000  48.7260000
  36.4100000  21.8410000  21.4350000  34.5300000  23.6520000  21.1790000
  35.5780000  22.6420000  21.3220000  34.8930000  24.5100000  20.6070000
  34.2010000  24.0110000  22.1590000  33.6610000  23.2390000  20.6590000
  44.0760000  31.7330000  41.6400000  43.8140000  34.2880000  41.1120000
  43.9600000  32.8630000  41.4060000  44.7890000  34.7480000  40.9250000
  43.3460000  34.8120000  41.9500000  43.1920000  34.4400000  40.2260000
  45.6890000  40.4080000  31.1010000  46.3470000  38.0480000  30.1660000
  45.9800000  39.3640000  30.6870000  45.9140000  37.2520000  30.7800000
  47.4340000  37.9210000  30.1620000  45.9860000  37.9210000  29.1420000
  42.1650000  19.3920000  26.2860000  39.8390000  19.3110000  27.4930000
  41.1360000  19.3560000  26.8200000  39.8220000  19.9880000  28.3520000
  39.6220000  18.3000000  27.8530000  39.0360000  19.6070000  26.8110000
  25.0350000  46.3300000  30.2780000  22.8360000  44.9080000  30.4160000
  24.0620000  45.7010000  30.3390000  23.0140000  43.9680000  30.9470000
  22.4650000  44.6690000  29.4150000  22.0520000  45.4550000  30.9470000
  51.5800000  45.6560000  33.6100000  50.4220000  47.9960000  33.3700000
  51.0680000  46.6910000  33.5040000  50.7790000  48.5170000  32.4770000
  50.6340000  48.6260000  34.2390000  49.3370000  47.8860000  33.2870000
  30.2480000  34.1170000  28.0290000  32.8620000  33.9940000  27.8590000
  31.4050000  34.0630000  27.9540000  33.2860000  33.5060000  28.7410000
  33.2940000  34.9970000  27.7850000  33.1680000  33.4260000  26.9760000
  20.8420000  46.1630000  18.2770000  19.7160000  48.5290000  18.1740000
  20.3440000  47.2090000  18.2310000  18.6480000  48.4420000  17.9530000
  20.1760000  49.1440000  17.3940000  19.8250000  49.0530000  19.1280000
  27.5590000  42.1690000  41.7120000  25.9290000  43.5620000  40.2040000
  26.8380000  42.7850000  41.0450000  25.0850000  43.9410000  40.7890000
  25.5300000  42.9470000  39.3910000  26.4450000  44.4180000  39.7600000
  26.9920000  50.6080000  43.3100000  27.7480000  48.5780000  41.8330000
  27.3270000  49.7100000  42.6570000  27.4860000  48.7410000  40.7840000
  27.2650000  47.6530000  42.1650000  28.8310000  48.4340000  41.8940000
  34.2650000  47.2050000  27.8480000  32.7980000  45.3800000  29.0270000
  33.6160000  46.3980000  28.3700000  33.2440000  45.0770000  29.9790000
  32.7040000  44.4900000  28.3980000  31.7920000  45.7600000  29.2290000
  37.5890000  42.5810000  48.5600000  37.4990000  44.9000000  49.7800000
  37.5490000  43.6070000  49.1000000  37.7790000  44.7970000  50.8330000
  36.4910000  45.3240000  49.7370000  38.1870000  45.6120000  49.3150000
  29.2120000  18.6540000  23.6420000  28.2500000  21.0860000  23.4580000
  28.7860000  19.7300000  23.5610000  27.3540000  21.1980000  24.0750000
  27.9810000  21.3210000  22.4230000  28.9860000  21.8220000  23.7920000
  50.7940000  37.1630000  50.3720000  48.7400000  35.7170000  51.1230000
  49.8850000  36.5230000  50.7050000  47.8300000  36.0340000  50.6040000
  48.5680000  35.8140000  52.2000000  48.9060000  34.6590000  50.9000000
  47.0170000  52.1530000  49.3050000  46.9120000  49.8890000  47.9870000
  46.9710000  51.1520000  48.7220000  46.4020000  50.0210000  47.0280000
  46.3690000  49.1310000  48.5590000  47.9180000  49.5080000  47.7870000
  18.1090000  44.0580000  37.4760000  19.6290000  46.1910000  37.3650000
  18.7820000  45.0020000  37.4270000  19.3300000  46.9220000  38.1220000
  19.5570000  46.6700000  36.3830000  20.6780000  45.9320000  37.5390000
  50.6290000  46.1060000  35.7220000  50.8830000  43.7360000  36.8150000
  50.7420000  45.0580000  36.2050000  49.9710000  43.1470000  36.6820000
  51.0780000  43.8220000  37.8880000  51.7120000  43.1860000  36.3620000
  46.9160000  31.6350000  34.2480000  46.1650000  32.7600000  36.4940000
  46.5840000  32.1330000  35.2410000  45.1090000  33.0440000  36.4530000
  46.7520000  33.6630000  36.6920000  46.3000000  32.0760000  37.3360000
  38.2580000  28.4310000  30.9320000  38.7880000  26.4350000  29.3160000
  38.4920000  27.5480000  30.2170000  38.1260000  26.4530000  28.4450000
  38.6530000  25.4760000  29.8260000  39.8200000  26.4870000  28.9590000
  30.2420000  50.4320000  51.4290000  27.7900000  50.2950000  50.5100000
  29.1570000  50.3710000  51.0220000  27.5810000  51.1290000  49.8340000
  27.0650000  50.3320000  51.3290000  27.6320000  49.3640000  49.9590000
  42.9030000  34.8740000  24.5910000  42.7650000  32.4090000  23.7080000
  42.8420000  33.7830000  24.2010000  43.7110000  31.8840000  23.8710000
  42.5460000  32.3910000  22.6360000  41.9760000  31.8540000  24.2250000
  37.1760000  44.7120000  44.0280000  35.3160000  45.9240000  45.4230000
  36.3530000  45.2480000  44.6450000  34.9150000  46.7810000  44.8750000
  35.7170000  46.2850000  46.3750000  34.4880000  45.2430000  45.6410000
  33.6350000  27.5290000  46.0890000  35.9530000  27.0090000  47.1990000
  34.6610000  27.2990000  46.5800000  36.7720000  27.4130000  46.5980000
  36.1040000  25.9290000  47.2970000  36.0140000  27.4520000  48.1980000
  30.4180000  42.7880000  35.4900000  29.7800000  45.3220000  35.2740000
  30.1360000  43.9090000  35.3950000  29.1840000  45.6470000  36.1310000
  29.1950000  45.5000000  34.3660000  30.6770000  45.9460000  35.2270000
  29.8860000  29.4060000  44.1950000  30.1770000  27.8190000  42.1280000
  30.0140000  28.7040000  43.2810000  29.3390000  27.9280000  41.4330000
  30.2210000  26.7720000  42.4450000  31.0990000  28.0490000  41.5880000
  38.9830000  20.6440000  23.8520000  39.5600000  21.5440000  21.4580000
  39.2380000  21.0420000  22.7930000  39.6120000  20.7240000  20.7360000
  40.5260000  22.0580000  21.4580000  38.7990000  22.2510000  21.1150000
  20.6250000  30.8550000  45.3710000  22.1490000  32.1230000  43.6540000
  21.2990000  31.4160000  44.6110000  22.4550000  31.4580000  42.8410000
  23.0530000  32.5010000  44.1420000  21.6190000  32.9730000  43.2170000
  46.5860000  36.2500000  41.3040000  48.9260000  35.9680000  42.4520000
  47.6210000  36.1260000  41.8120000  49.0140000  34.9820000  42.9180000
  49.0720000  36.7250000  43.2290000  49.7330000  36.0720000  41.7210000
  30.7330000  43.6620000  29.3930000  30.6700000  41.5860000  30.9930000
  30.7050000  42.7440000  30.1010000  30.7600000  40.6550000  30.4250000
  29.7280000  41.5530000  31.5510000  31.4900000  41.6250000  31.7140000
  36.4100000  30.9020000  19.2230000  38.7100000  32.0290000  19.7850000
  37.4270000  31.4010000  19.4720000  38.5850000  33.1010000  19.9610000
  39.4180000  31.9000000  18.9610000  39.1510000  31.5860000  20.6830000
  31.0980000  48.1870000  19.1860000  28.8270000  49.4670000  19.4650000
  30.0930000  48.7540000  19.3090000  28.1150000  48.8740000  20.0460000
  28.3770000  49.6790000  18.4890000  28.9780000  50.4190000  19.9820000
  44.1780000  31.9570000  34.4930000  45.2530000  32.5280000  32.1710000
  44.6540000  32.2100000  33.4660000  46.3440000  32.5760000  32.2490000
  44.8960000  33.4960000  31.8050000  44.9990000  31.7680000  31.4270000
  33.6610000  45.0330000  39.8340000  35.2910000  47.0560000  40.1890000
  34.3820000  45.9280000  39.9910000  36.3220000  46.7690000  39.9610000
  35.2560000  47.4050000  41.2260000  35.0190000  47.8930000  39.5390000
  23.3660000  41.9360000  36.9770000  23.4690000  39.3160000  37.0420000
  23.4120000  40.7770000  37.0060000  22.7530000  38.8810000  36.3390000
  23.2330000  38.9420000  38.0430000  24.4680000  38.9600000  36.7740000
  41.0770000  19.1600000  23.8160000  43.6870000  18.9210000  23.8880000
  42.2320000  19.0540000  23.8480000  44.0180000  18.0850000  23.2650000
  44.0340000  18.7420000  24.9100000  44.1710000  19.8300000  23.5200000
  38.0980000  32.4040000  50.4000000  39.1020000  34.5830000  49.3420000
  38.5430000  33.3680000  49.9320000  38.4350000  34.9870000  48.5760000
  40.0710000  34.3780000  48.8760000  39.2490000  35.3540000  50.1050000
  31.1440000  31.8540000  46.9020000  33.3540000  30.5590000  46.3450000
  32.1220000  31.2810000  46.6550000  33.4650000  30.4250000  45.2650000
  33.3530000  29.5690000  46.8110000  34.2280000  31.1050000  46.7110000
  21.7770000  49.8420000  44.9740000  23.8060000  50.1270000  43.3380000
  22.6750000  49.9680000  44.2500000  23.5560000  50.8130000  42.5230000
  24.0890000  49.1650000  42.8980000  24.6770000  50.5290000  43.8640000
  20.3550000  42.7860000  20.5230000  22.7280000  43.0040000  21.6160000
  21.4050000  42.8820000  21.0060000  22.8990000  42.1990000  22.3370000
  22.8280000  43.9590000  22.1410000  23.5130000  42.9510000  20.8560000
  26.6250000  24.6930000  37.7010000  27.6860000  25.7140000  35.5320000
  27.0940000  25.1450000  36.7410000  27.9860000  26.7530000  35.6970000
  26.9720000  25.6950000  34.7030000  28.5730000  25.1490000  35.2290000
  35.7890000  47.6360000  52.1620000  37.8920000  49.1450000  51.7460000
  36.7190000  48.3030000  51.9780000  37.7570000  50.1330000  52.1960000
  38.0680000  49.2810000  50.6740000  38.7880000  48.6930000  52.1810000
  20.4790000  47.8910000  27.4830000  21.3810000  49.9280000  28.8650000
  20.8780000  48.7920000  28.0940000  21.0640000  50.8740000  28.4160000
  22.4750000  49.9200000  28.9020000  21.0060000  49.8980000  29.8920000
  17.4020000  21.2610000  51.3700000  19.8890000  21.9710000  50.9400000
  18.5020000  21.5750000  51.1800000  20.5310000  21.0920000  50.8280000
  20.2730000  22.5690000  51.7730000  19.9710000  22.5690000  50.0270000
  51.8170000  50.6410000  48.0320000  51.6820000  48.3370000  49.2750000
  51.7570000  49.6220000  48.5820000  50.6410000  48.0310000  49.4150000
  52.1530000  48.3980000  50.2610000  52.1910000  47.5560000  48.7030000
  35.3920000  41.7860000  38.6050000  36.4680000  41.7110000  40.9950000
  35.8680000  41.7530000  39.6620000  36.4420000  40.6960000  41.4010000
  35.9290000  42.3680000  41.6850000  37.5120000  42.0370000  40.9620000
  38.3100000  49.3230000  20.8040000  38.2100000  51.5790000  22.1380000
  38.2660000  50.3210000  21.3940000  39.1230000  52.1620000  21.9840000
  38.1030000  51.3920000  23.2110000  37.3610000  52.1860000  21.8130000
  17.8260000  49.0260000  29.3820000  19.4110000  47.0470000  30.0510000
  18.5270000  48.1510000  29.6780000  18.9880000  46.0880000  29.7400000
  19.5610000  47.0180000  31.1350000  20.3900000  47.1560000  29.5760000
  40.6690000  25.1130000  41.1740000  41.8180000  22.7700000  40.9190000
  41.1770000  24.0770000  41.0610000  42.2330000  22.6480000  39.9140000
  41.0980000  21.9630000  41.0900000  42.6330000  22.6560000  41.6390000
  31.7310000  24.6470000  41.1090000  30.6690000  23.8620000  43.3740000
  31.2610000  24.2990000  42.1110000  29.6380000  23.5270000  43.2250000
  30.6590000  24.6790000  44.1030000  31.2370000  23.0310000  43.8030000
  31.9760000  45.6980000  41.7020000  30.4890000  43.6100000  41.1490000
  31.3180000  44.7740000  41.4570000  29.7560000  43.8490000  40.3730000
  29.9470000  43.2720000  42.0370000  31.1040000  42.7790000  40.7900000
  29.7440000  17.9840000  35.2460000  30.1120000  20.5190000  34.6830000
  29.9070000  19.1050000  34.9970000  29.4350000  20.8420000  33.8860000
  31.1390000  20.6980000  34.3510000  29.9250000  21.1430000  35.5610000
  24.8270000  23.1830000  37.3400000  27.1630000  22.0000000  37.2090000
  25.8610000  22.6590000  37.2820000  27.1110000  21.1020000  36.5850000
  27.5050000  21.7010000  38.2050000  27.9140000  22.6680000  36.7790000
  35.0920000  38.6780000  18.1920000  36.1820000  36.3080000  18.4610000
  35.5740000  37.6290000  18.3110000  36.3740000  35.8550000  17.4840000
  35.5230000  35.6380000  19.0220000  37.1330000  36.3760000  18.9960000
  28.8340000  24.5010000  46.1010000  30.5000000  26.4660000  45.6130000
  29.5710000  25.3700000  45.8850000  30.4150000  27.2460000  46.3750000
  30.2930000  26.9190000  44.6390000  31.5330000  26.1070000  45.6090000
  30.3030000  24.5810000  52.1720000  30.9470000  22.3400000  50.9730000
  30.5880000  23.5890000  51.6410000  30.0510000  21.7880000  50.6720000
  31.5330000  21.6980000  51.6380000  31.5430000  22.5350000  50.0770000
  40.2970000  44.4750000  45.0350000  39.0780000  46.6270000  45.9050000
  39.7580000  45.4270000  45.4200000  39.5520000  47.5300000  45.5080000
  39.1120000  46.6780000  46.9970000  38.0290000  46.6310000  45.5960000
  20.7940000  23.4870000  20.8320000  22.6890000  21.6770000  20.7860000
  21.6320000  22.6860000  20.8110000  23.5280000  21.9760000  21.4210000
  23.0670000  21.5350000  19.7690000  22.3160000  20.7140000  21.1470000
  44.0450000  42.8530000  28.7280000  41.9450000  44.0620000  29.7280000
  43.1160000  43.3880000  29.1710000  41.3130000  43.3560000  30.2750000
  41.3410000  44.5140000  28.9350000  42.2450000  44.8550000  30.4190000
  29.3250000  36.9600000  49.3570000  28.5410000  34.4580000  49.3810000
  28.9780000  35.8530000  49.3680000  29.2110000  33.8460000  49.9910000
  28.5300000  34.0440000  48.3680000  27.5320000  34.3710000  49.7940000
  23.4700000  46.4050000  20.0170000  25.1320000  48.3610000  19.4800000
  24.2050000  47.2700000  19.7790000  25.0350000  49.1660000  20.2140000
  24.9330000  48.7790000  18.4880000  26.1670000  48.0070000  19.4970000
  33.0470000  49.7310000  33.7200000  35.2840000  48.4580000  34.2220000
  34.0370000  49.1680000  33.9420000  35.0920000  47.5460000  34.7950000
  35.9680000  49.0860000  34.8010000  35.7870000  48.1750000  33.2930000
  19.0100000  26.2800000  41.1430000  18.9850000  28.7070000  42.1330000
  18.9990000  27.3540000  41.5810000  19.1380000  29.4510000  41.3450000
  19.7780000  28.8330000  42.8770000  18.0280000  28.9200000  42.6190000
  27.4900000  48.7030000  44.9960000  25.0820000  47.7450000  45.3930000
  26.4250000  48.2800000  45.1720000  25.1290000  46.7550000  45.8550000
  24.5380000  47.6540000  44.4480000  24.5070000  48.4010000  46.0540000
  27.7640000  37.4720000  43.6960000  29.5240000  38.3670000  45.4220000
  28.5430000  37.8680000  44.4590000  30.3600000  37.6690000  45.5220000
  29.0690000  38.4970000  46.4090000  29.9250000  39.3330000  45.1030000
  19.1180000  24.6360000  35.1680000  18.5570000  23.4040000  32.9220000
  18.8700000  24.0910000  34.1750000  18.1510000  24.1030000  32.1860000
  17.8170000  22.6150000  33.0860000  19.4540000  22.9440000  32.4970000
  40.2250000  49.9410000  37.2550000  37.6940000  49.3720000  37.6360000
  39.1060000  49.6890000  37.4240000  37.2140000  49.0870000  36.6950000
  37.1590000  50.2350000  38.0430000  37.5840000  48.5420000  38.3390000
  43.3630000  27.8020000  45.3600000  44.0910000  25.2870000  45.2110000
  43.6850000  26.6890000  45.2940000  43.9810000  24.7920000  46.1800000
  45.1380000  25.2030000  44.9030000  43.4790000  24.7480000  44.4830000
  22.2700000  33.1410000  29.1330000  21.4500000  35.6060000  28.7740000
  21.9070000  34.2310000  28.9740000  21.9430000  36.2850000  29.4760000
  20.3690000  35.6820000  28.9280000  21.6730000  35.9460000  27.7590000
  19.3580000  38.4860000  47.3950000  18.7300000  39.5040000  49.7280000
  19.0800000  38.9360000  48.4270000  18.0850000  40.3790000  49.6100000
  19.6280000  39.8140000  50.2720000  18.1990000  38.7710000  50.3420000
  27.6160000  52.1900000  41.2100000  28.3770000  50.8170000  39.1100000
  27.9520000  51.5830000  40.2810000  27.5400000  50.2520000  38.6910000
  29.1680000  50.1080000  39.3750000  28.7630000  51.4810000  38.3310000
  22.4420000  33.5010000  26.5910000  19.8640000  33.6420000  27.0500000
  21.3010000  33.5640000  26.7940000  19.4210000  34.4940000  26.5250000
  19.6650000  33.7610000  28.1200000  19.3580000  32.7340000  26.7100000
  40.6950000  44.7470000  34.1080000  41.3370000  46.3060000  36.1160000
  40.9790000  45.4370000  34.9970000  41.9480000  47.1470000  35.7760000
  41.9070000  45.7540000  36.8700000  40.4410000  46.7100000  36.5970000
  25.1740000  20.8990000  20.2060000  25.9880000  22.6040000  18.3890000
  25.5340000  21.6530000  19.4020000  26.0160000  22.1360000  17.4000000
  26.9940000  22.9690000  18.6200000  25.3180000  23.4680000  18.3370000
  32.6960000  40.7330000  29.2890000  30.7910000  41.3130000  27.5830000
  31.8530000  40.9900000  28.5340000  31.1740000  41.9360000  26.7690000
  29.9810000  41.8590000  28.0760000  30.3700000  40.4030000  27.1460000
  21.9350000  29.3190000  33.1820000  21.8090000  29.3220000  30.5630000
  21.8800000  29.3200000  32.0240000  22.6030000  28.7030000  30.1350000
  21.9200000  30.3370000  30.1700000  20.8490000  28.9270000  30.2200000
  34.8000000  34.8000000  34.8000000  90.0000000  90.0000000  90.0000000
